<VTKFile type="UnstructuredGrid" version="0.1" byte_order="LittleEndian">
 <UnstructuredGrid>
  <Piece NumberOfPoints="19019" NumberOfCells="9702">
   <Points>
    <DataArray type="Float64" NumberOfComponents="3" Format="ascii">
     -0.5131408027824862E+01  0.9093266576528549E+01  0.0000000000000000E+00
     -0.4756408027824862E+01  0.8227241188287735E+01  0.0000000000000000E+00
     -0.5881408027824863E+01  0.8010734841227531E+01  0.0000000000000000E+00
     -0.5506408027824862E+01  0.8660253882408142E+01  0.0000000000000000E+00
     -0.4006408027824863E+01  0.6928203105926513E+01  0.0000000000000000E+00
     -0.3389196537632450E+01  0.5840108120833328E+01  0.0000000000000000E+00
     -0.4861864721692734E+01  0.5718557099727819E+01  0.0000000000000000E+00
     -0.4031095490923502E+01  0.6198201930138117E+01  0.0000000000000000E+00
     -0.6631408027824864E+01  0.6711696758866310E+01  0.0000000000000000E+00
     -0.6256408027824864E+01  0.5629165023565292E+01  0.0000000000000000E+00
     -0.7381408027824864E+01  0.5412658676505089E+01  0.0000000000000000E+00
     -0.7006408027824864E+01  0.6062177717685699E+01  0.0000000000000000E+00
     -0.5506408027824864E+01  0.6062177717685699E+01  0.0000000000000000E+00
     -0.6256408027824864E+01  0.7361215800046921E+01  0.0000000000000000E+00
     -0.4756408027824864E+01  0.7361215800046920E+01  0.0000000000000000E+00
     -0.5506408027824864E+01  0.6928203105926514E+01  0.0000000000000000E+00
     -0.8131408027824863E+01  0.4113620594143867E+01  0.0000000000000000E+00
     -0.7756408027824864E+01  0.3031088858842850E+01  0.0000000000000000E+00
     -0.8881408027824863E+01  0.2814582511782646E+01  0.0000000000000000E+00
     -0.8506408027824863E+01  0.3464101552963257E+01  0.0000000000000000E+00
     -0.7136552185158686E+01  0.1778682912771518E+01  0.0000000000000000E+00
     -0.6505484367133031E+01  0.4425393662169342E+00  0.0000000000000000E+00
     -0.7756408027824863E+01  0.4330126941204069E+00  0.0000000000000000E+00
     -0.7136552185158685E+01  0.8193932519509241E+00  0.0000000000000000E+00
     -0.9631408027824863E+01  0.1515544429421425E+01  0.0000000000000000E+00
     -0.9256408027824863E+01  0.4330126941204071E+00  0.0000000000000000E+00
     -0.1019390802782486E+02  0.3247595205903053E+00  0.0000000000000000E+00
     -0.1000640802782486E+02  0.8660253882408142E+00  0.0000000000000000E+00
     -0.8506408027824861E+01  0.8660253882408142E+00  0.0000000000000000E+00
     -0.9256408027824863E+01  0.2165063470602036E+01  0.0000000000000000E+00
     -0.7756408027824863E+01  0.2165063470602036E+01  0.0000000000000000E+00
     -0.8506408027824863E+01  0.1732050776481628E+01  0.0000000000000000E+00
     -0.6460001509830622E+01  0.2207167425155874E+01  0.0000000000000000E+00
     -0.7006408027824862E+01  0.3464101552963256E+01  0.0000000000000000E+00
     -0.7756408027824864E+01  0.4763139635324478E+01  0.0000000000000000E+00
     -0.6256408027824861E+01  0.4763139635324477E+01  0.0000000000000000E+00
     -0.7006408027824864E+01  0.4330126941204071E+01  0.0000000000000000E+00
     -0.4894667863639321E+01  0.4918404782061454E+01  0.0000000000000000E+00
     -0.5675386790993127E+01  0.4427686873702859E+01  0.0000000000000000E+00
     -0.6425386790993127E+01  0.3128648791341638E+01  0.0000000000000000E+00
     -0.5716753180111894E+01  0.3585544380768966E+01  0.0000000000000000E+00
      0.5556091972175137E+01  0.9418026097118855E+01  0.0000000000000000E+00
      0.4993591972175138E+01  0.8660253882408142E+01  0.0000000000000000E+00
      0.4243591972175138E+01  0.9526279270648956E+01  0.0000000000000000E+00
      0.4993591972175138E+01  0.9526279270648956E+01  0.0000000000000000E+00
      0.4243591972175137E+01  0.7361215800046921E+01  0.0000000000000000E+00
      0.3609879801540028E+01  0.6282647487188711E+01  0.0000000000000000E+00
      0.2768279435273779E+01  0.7497240012499341E+01  0.0000000000000000E+00
      0.3599048666043009E+01  0.7017595182089042E+01  0.0000000000000000E+00
      0.2743591972175138E+01  0.9526279270648956E+01  0.0000000000000000E+00
      0.1993591972175138E+01  0.8660253882408142E+01  0.0000000000000000E+00
      0.1243591972175138E+01  0.9526279270648956E+01  0.0000000000000000E+00
      0.1993591972175138E+01  0.9526279270648956E+01  0.0000000000000000E+00
      0.2743591972175138E+01  0.8227241188287737E+01  0.0000000000000000E+00
      0.3493591972175138E+01  0.9526279270648956E+01  0.0000000000000000E+00
      0.4243591972175137E+01  0.8227241188287737E+01  0.0000000000000000E+00
      0.3493591972175138E+01  0.8660253882408142E+01  0.0000000000000000E+00
     -0.2564080278248619E+00  0.9526279270648956E+01  0.0000000000000000E+00
     -0.1006408027824862E+01  0.8660253882408142E+01  0.0000000000000000E+00
     -0.1756408027824862E+01  0.9526279270648956E+01  0.0000000000000000E+00
     -0.1006408027824862E+01  0.9526279270648956E+01  0.0000000000000000E+00
     -0.1781095490923502E+01  0.7497240012499339E+01  0.0000000000000000E+00
     -0.2622695857189751E+01  0.6282647487188711E+01  0.0000000000000000E+00
     -0.3256408027824862E+01  0.7361215800046920E+01  0.0000000000000000E+00
     -0.2611864721692733E+01  0.7017595182089042E+01  0.0000000000000000E+00
     -0.3256408027824862E+01  0.9526279270648956E+01  0.0000000000000000E+00
     -0.4006408027824862E+01  0.8660253882408142E+01  0.0000000000000000E+00
     -0.4568908027824862E+01  0.9418026097118855E+01  0.0000000000000000E+00
     -0.4006408027824862E+01  0.9526279270648956E+01  0.0000000000000000E+00
     -0.3256408027824862E+01  0.8227241188287735E+01  0.0000000000000000E+00
     -0.2506408027824862E+01  0.9526279270648956E+01  0.0000000000000000E+00
     -0.1756408027824862E+01  0.8227241188287735E+01  0.0000000000000000E+00
     -0.2506408027824862E+01  0.8660253882408142E+01  0.0000000000000000E+00
     -0.1071741673611499E+01  0.7125572207487114E+01  0.0000000000000000E+00
     -0.2564080278248620E+00  0.8227241188287735E+01  0.0000000000000000E+00
      0.4935919721751381E+00  0.9526279270648956E+01  0.0000000000000000E+00
      0.1243591972175138E+01  0.8227241188287737E+01  0.0000000000000000E+00
      0.4935919721751381E+00  0.8660253882408142E+01  0.0000000000000000E+00
      0.2058925617961775E+01  0.7125572207487114E+01  0.0000000000000000E+00
      0.1243591972175138E+01  0.7556335665426277E+01  0.0000000000000000E+00
     -0.2564080278248619E+00  0.7556335665426277E+01  0.0000000000000000E+00
      0.4935919721751376E+00  0.7171088762244850E+01  0.0000000000000000E+00
      0.1118109197217514E+02  0.3247595205903053E+00  0.0000000000000000E+00
      0.1024359197217514E+02  0.4330126941204071E+00  0.0000000000000000E+00
      0.1061859197217514E+02  0.1515544429421425E+01  0.0000000000000000E+00
      0.1099359197217514E+02  0.8660253882408142E+00  0.0000000000000000E+00
      0.8743591972175137E+01  0.4330126941204073E+00  0.0000000000000000E+00
      0.7492668311483305E+01  0.4425393662169339E+00  0.0000000000000000E+00
      0.8123736129508959E+01  0.1778682912771519E+01  0.0000000000000000E+00
      0.8123736129508961E+01  0.8193932519509242E+00  0.0000000000000000E+00
      0.9868591972175137E+01  0.2814582511782646E+01  0.0000000000000000E+00
      0.8743591972175137E+01  0.3031088858842850E+01  0.0000000000000000E+00
      0.9118591972175137E+01  0.4113620594143867E+01  0.0000000000000000E+00
      0.9493591972175137E+01  0.3464101552963257E+01  0.0000000000000000E+00
      0.8743591972175139E+01  0.2165063470602035E+01  0.0000000000000000E+00
      0.1024359197217514E+02  0.2165063470602036E+01  0.0000000000000000E+00
      0.9493591972175137E+01  0.8660253882408142E+00  0.0000000000000000E+00
      0.9493591972175137E+01  0.1732050776481628E+01  0.0000000000000000E+00
      0.8368591972175137E+01  0.5412658676505089E+01  0.0000000000000000E+00
      0.7243591972175136E+01  0.5629165023565292E+01  0.0000000000000000E+00
      0.7618591972175136E+01  0.6711696758866310E+01  0.0000000000000000E+00
      0.7993591972175136E+01  0.6062177717685699E+01  0.0000000000000000E+00
      0.5849048666043009E+01  0.5718557099727819E+01  0.0000000000000000E+00
      0.4376380481982725E+01  0.5840108120833328E+01  0.0000000000000000E+00
      0.4993591972175137E+01  0.6928203105926514E+01  0.0000000000000000E+00
      0.5018279435273777E+01  0.6198201930138119E+01  0.0000000000000000E+00
      0.6868591972175136E+01  0.8010734841227531E+01  0.0000000000000000E+00
      0.5743591972175138E+01  0.8227241188287735E+01  0.0000000000000000E+00
      0.6118591972175137E+01  0.9093266576528549E+01  0.0000000000000000E+00
      0.6493591972175136E+01  0.8660253882408142E+01  0.0000000000000000E+00
      0.5743591972175139E+01  0.7361215800046921E+01  0.0000000000000000E+00
      0.7243591972175136E+01  0.7361215800046921E+01  0.0000000000000000E+00
      0.6493591972175138E+01  0.6062177717685700E+01  0.0000000000000000E+00
      0.6493591972175136E+01  0.6928203105926514E+01  0.0000000000000000E+00
      0.5881851807989594E+01  0.4918404782061454E+01  0.0000000000000000E+00
      0.7243591972175136E+01  0.4763139635324479E+01  0.0000000000000000E+00
      0.8743591972175137E+01  0.4763139635324478E+01  0.0000000000000000E+00
      0.7993591972175137E+01  0.3464101552963257E+01  0.0000000000000000E+00
      0.7993591972175136E+01  0.4330126941204071E+01  0.0000000000000000E+00
      0.7447185454180896E+01  0.2207167425155875E+01  0.0000000000000000E+00
      0.7412570735343404E+01  0.3128648791341637E+01  0.0000000000000000E+00
      0.6662570735343402E+01  0.4427686873702859E+01  0.0000000000000000E+00
      0.6703937124462168E+01  0.3585544380768965E+01  0.0000000000000000E+00
      0.6118591972175138E+01 -0.9093266576528549E+01  0.0000000000000000E+00
      0.5743591972175138E+01 -0.8227241188287735E+01  0.0000000000000000E+00
      0.6868591972175137E+01 -0.8010734841227531E+01  0.0000000000000000E+00
[...]
   <CellData>
    <DataArray type="Float64" Name="Volume" format="ascii" NumberOfComponents="1">
      0.1197550732176751E+01
      0.1948557123541834E+01
      0.1623797602951530E+01
      0.1572676207052632E+01
      0.1808400109314450E+01
      0.8192265694884320E+00
      0.1218133959299509E+01
      0.1688019507555714E+01
      0.1623797602951527E+01
      0.1623797602951525E+01
      0.1623797602951525E+01
      0.1688019507156891E+01
      0.1623797602951528E+01
      0.1218133959034100E+01
      0.1808400109103678E+01
      0.8192265695335659E+00
      0.1572676206904768E+01
      0.1948557123541832E+01
      0.1623797602951528E+01
      0.1197550732176751E+01
      0.1031608088520660E+01
      0.1620052982564246E+01
      0.1031608088686337E+01
      0.1197550732176751E+01
      0.1948557123541837E+01
      0.1623797602951518E+01
      0.1572676207052636E+01
      0.1808400109314450E+01
      0.8192265694884284E+00
      0.1218133959331011E+01
      0.1688019507111752E+01
      0.1623797602951527E+01
      0.1623797602951526E+01
      0.1623797602951527E+01
      0.1688019507111753E+01
      0.1623797602951525E+01
      0.1218133959331009E+01
      0.1808400109314451E+01
      0.1623797602951530E+01
      0.1031608088429551E+01
      0.1620052982268564E+01
      0.1031608088429551E+01
      0.1197550732176750E+01
      0.1948557123541832E+01
      0.1623797602951527E+01
      0.1572676206904770E+01
      0.1808400109103680E+01
      0.8192265695335659E+00
      0.1218133959034102E+01
      0.1688019507156888E+01
      0.1623797602951527E+01
      0.1623797602951528E+01
      0.1623797602951525E+01
      0.1688019507555717E+01
      0.1623797602951527E+01
      0.1218133959299513E+01
      0.1808400109314448E+01
      0.1623797602951523E+01
      0.1031608088686335E+01
      0.1620052982564246E+01
      0.1031608088520660E+01
      0.1197550732176751E+01
      0.1948557123541834E+01
      0.1623797602951523E+01
      0.1572676207052634E+01
      0.1808400109314443E+01
      0.8192265694884284E+00
      0.1218133959299511E+01
      0.1688019507555719E+01
      0.1623797602951527E+01
      0.1623797602951523E+01
      0.1623797602951527E+01
      0.1688019507156891E+01
      0.1623797602951527E+01
      0.1218133959034103E+01
      0.1808400109103680E+01
      0.1623797602951527E+01
      0.1031608088520660E+01
      0.1620052982564243E+01
      0.1031608088686340E+01
      0.1197550732176751E+01
      0.1948557123541832E+01
      0.1623797602951530E+01
      0.1572676207052635E+01
      0.1808400109314451E+01
      0.8192265694884329E+00
      0.1218133959331008E+01
      0.1688019507111754E+01
      0.1623797602951525E+01
      0.1623797602951527E+01
      0.1623797602951526E+01
      0.1688019507111754E+01
      0.1623797602951527E+01
      0.1218133959331009E+01
      0.1808400109314450E+01
      0.1623797602951523E+01
      0.1031608088429552E+01
      0.1620052982268564E+01
      0.1031608088429550E+01
      0.1623797602951527E+01
      0.1808400109103680E+01
      0.1218133959034102E+01
      0.1688019507156892E+01
      0.1623797602951527E+01
      0.1623797602951525E+01
      0.1623797602951525E+01
      0.1688019507555714E+01
      0.1623797602951525E+01
      0.1218133959299511E+01
      0.1808400109314450E+01
      0.1623797602951530E+01
      0.1031608088686335E+01
      0.1620052982564248E+01
      0.1031608088520659E+01
      0.5883542974727356E+00
      0.5296391391553534E+00
      0.4521000273286133E+00
      0.4871392808854598E+00
      0.4871392808854589E+00
      0.3131234723235021E+00
      0.4220048768889293E+00
      0.2579020221715833E+00
      0.4050132456410616E+00
      0.4871392808854575E+00
      0.4871392808854571E+00
      0.4871392808854580E+00
      0.4871392808854584E+00
      0.4871392808854580E+00
      0.4871392808854580E+00
      0.4050132456410618E+00
      0.4871392808854578E+00
      0.4871392808854573E+00
      0.2579020221301647E+00
      0.4220048767892228E+00
      0.3131234722164258E+00
      0.4521000272759203E+00
      0.4871392808854587E+00
      0.5296391393007904E+00
      0.5883542973041501E+00
      0.2502556642909934E+00
      0.4050132456410624E+00
      0.2502556642909930E+00
      0.5989026535372333E+00
      0.5389922582135327E+00
      0.5693207918849259E+00
      0.5693207921254935E+00
      0.6483670819780896E+00
      0.5693207918849268E+00
      0.5693207921254944E+00
      0.5389922577157522E+00
      0.5989026531807538E+00
      0.6483670822813217E+00
      0.6245363042304817E+00
      0.5883542974727343E+00
      0.5296391395979043E+00
      0.4521000273286120E+00
      0.4871392808854589E+00
      0.4871392808854593E+00
      0.3131234723235030E+00
      0.4220048767779381E+00
      0.2579020221073862E+00
      0.4050132455671411E+00
      0.4871392808854580E+00
      0.4871392808854571E+00
      0.4871392808854571E+00
      0.4871392808854582E+00
      0.4871392808854580E+00
      0.4871392808854587E+00
      0.4050132455671403E+00
      0.4871392808854573E+00
      0.4871392808854575E+00
      0.2579020221073881E+00
      0.4220048767779392E+00
      0.4871392808854584E+00
      0.5296391395979025E+00
      0.2502556642812199E+00
      0.4050132455671402E+00
      0.2502556642812193E+00
      0.5989026536237194E+00
      0.5389922577157504E+00
      0.5693207920186216E+00
      0.5693207920186218E+00
      0.6483670821174092E+00
      0.5693207920186223E+00
      0.5693207920186216E+00
      0.5389922577157513E+00
      0.5989026536237176E+00
      0.6483670821174083E+00
      0.6245363045384371E+00
      0.5883542973041500E+00
      0.5296391393007891E+00
      0.4521000272759212E+00
      0.4871392808854582E+00
      0.4871392808854589E+00
      0.3131234722164257E+00
      0.4220048767892235E+00
      0.2579020221301649E+00
      0.4050132456410607E+00
      0.4871392808854575E+00
      0.4871392808854571E+00
      0.4871392808854584E+00
      0.4871392808854589E+00
      0.4871392808854580E+00
      0.4871392808854580E+00
      0.4050132456410629E+00
      0.4871392808854580E+00
      0.4871392808854571E+00
      0.2579020221715829E+00
      0.4220048768889288E+00
      0.4871392808854571E+00
      0.5296391391553579E+00
      0.2502556642909921E+00
      0.4050132456410607E+00
      0.2502556642909939E+00
      0.5989026531807493E+00
      0.5389922577157495E+00
      0.5693207921254952E+00
      0.5693207918849268E+00
      0.6483670822813217E+00
      0.5693207921254935E+00
      0.5693207918849259E+00
      0.5389922582135336E+00
      0.5989026535372335E+00
      0.6483670819780887E+00
      0.6245363042304790E+00
      0.5883542974727343E+00
      0.5296391391553570E+00
      0.4521000273286129E+00
      0.4871392808854571E+00
      0.4871392808854571E+00
      0.3131234723235035E+00
      0.4220048768889288E+00
      0.2579020221715838E+00
      0.4050132456410642E+00
      0.4871392808854571E+00
      0.4871392808854580E+00
      0.4871392808854571E+00
      0.4871392808854589E+00
      0.4871392808854580E+00
      0.4871392808854571E+00
      0.4050132456410620E+00
      0.4871392808854569E+00
      0.4871392808854589E+00
      0.2579020221301649E+00
      0.4220048767892228E+00
      0.4871392808854587E+00
      0.5296391393007891E+00
      0.2502556642909939E+00
      0.4050132456410607E+00
      0.2502556642909921E+00
      0.5989026535372328E+00
      0.5389922582135322E+00
      0.5693207918849259E+00
      0.5693207921254935E+00
      0.6483670819780887E+00
      0.5693207918849268E+00
      0.5693207921254935E+00
      0.5389922577157513E+00
      0.5989026531807493E+00
      0.6483670822813234E+00
      0.6245363042304808E+00
      0.5883542974727369E+00
      0.5296391395979025E+00
      0.4521000273286129E+00
      0.4871392808854584E+00
      0.4871392808854575E+00
      0.3131234723235012E+00
      0.4220048767779399E+00
      0.2579020221073871E+00
      0.4050132455671404E+00
      0.4871392808854578E+00
      0.4871392808854580E+00
      0.4871392808854583E+00
      0.4871392808854584E+00
      0.4871392808854573E+00
      0.4871392808854580E+00
      0.4050132455671411E+00
      0.4871392808854580E+00
      0.4871392808854593E+00
      0.2579020221073871E+00
      0.4220048767779381E+00
      0.4871392808854580E+00
      0.5296391395979034E+00
      0.2502556642812195E+00
      0.4050132455671399E+00
      0.2502556642812195E+00
      0.5989026536237203E+00
      0.5389922577157522E+00
      0.5693207920186207E+00
      0.5693207920186227E+00
      0.6483670821174075E+00
      0.5693207920186218E+00
      0.5693207920186223E+00
      0.5389922577157504E+00
      0.5989026536237194E+00
      0.6483670821174081E+00
      0.6245363045384378E+00
      0.5296391393007902E+00
      0.4871392808854585E+00
      0.4871392808854578E+00
      0.4220048767892232E+00
      0.2579020221301646E+00
      0.4050132456410613E+00
      0.4871392808854578E+00
      0.4871392808854580E+00
      0.4871392808854580E+00
      0.4871392808854593E+00
      0.4871392808854589E+00
      0.4871392808854580E+00
      0.4050132456410602E+00
      0.4871392808854571E+00
      0.4871392808854580E+00
      0.2579020221715842E+00
      0.4220048768889288E+00
      0.4871392808854589E+00
      0.5296391391553534E+00
      0.2502556642909934E+00
      0.4050132456410616E+00
      0.2502556642909937E+00
      0.5989026531807529E+00
      0.5389922577157513E+00
      0.5693207921254944E+00
      0.5693207918849277E+00
      0.6483670822813234E+00
      0.5693207921254926E+00
      0.5693207918849259E+00
      0.5389922582135336E+00
      0.5989026535372326E+00
      0.6483670819780896E+00
      0.6245363042304817E+00
      0.1347480644289383E+00
      0.1620917705703300E+00
      0.1217848202213646E+00
      0.1423301980313734E+00
      0.1217848202213644E+00
      0.1217848202213643E+00
      0.1055012191944846E+00
      0.1130250068321534E+00
      0.1217848202213645E+00
      0.6447550552684689E-01
      0.7828086808087564E-01
      0.1055012192222321E+00
      0.1217848202213642E+00
      0.6447550554289616E-01
      0.1012533114102655E+00
      0.1217848202213645E+00
      0.1012533114102654E+00
      0.1217848202213645E+00
      0.6256391607274836E-01
      0.1012533114102654E+00
      0.1217848202213646E+00
      0.1055012191973057E+00
      0.1217848202213644E+00
      0.7828086805410650E-01
      0.1130250068189801E+00
      0.1217848202213644E+00
      0.6447550553254128E-01
      0.6256391607274847E-01
      0.1423301979712318E+00
      0.1620917704945224E+00
      0.1347480645533833E+00
      0.1423301980313735E+00
      0.1423301979712319E+00
      0.1423301980313736E+00
      0.1561340760576202E+00
      0.1423301979712321E+00
      0.1423301980313736E+00
      0.1423301979712321E+00
      0.1561340760576204E+00
      0.1561340760576204E+00
      0.1347480644289378E+00
      0.1620917705293530E+00
      0.1217848202213645E+00
      0.1423301980046561E+00
      0.1217848202213643E+00
      0.1217848202213641E+00
      0.1055012191944849E+00
      0.1217848202213645E+00
      0.1217848202213647E+00
      0.6447550552684667E-01
      0.1012533113917850E+00
      0.6256391607030465E-01
      0.1012533113917852E+00
      0.1217848202213645E+00
      0.1217848202213646E+00
      0.1217848202213644E+00
      0.1217848202213645E+00
      0.1217848202213642E+00
      0.1217848202213646E+00
      0.1012533113917852E+00
      0.1217848202213644E+00
      0.1217848202213645E+00
      0.6256391607030490E-01
      0.1012533113917851E+00
      0.1217848202213645E+00
      0.1217848202213644E+00
      0.6256391607030487E-01
      0.1012533113917852E+00
      0.6256391607030504E-01
      0.1423301980046555E+00
      0.1620917705293516E+00
      0.1423301980046555E+00
      0.1423301980046556E+00
      0.1423301980046555E+00
      0.1561340761346096E+00
      0.1423301980046553E+00
      0.1423301980046554E+00
      0.1423301980046559E+00
      0.1561340761346097E+00
      0.1561340761346097E+00
      0.1347480645533830E+00
      0.1620917704945224E+00
      0.1217848202213647E+00
      0.1423301979712314E+00
      0.1130250068189801E+00
      0.1217848202213644E+00
      0.7828086805410617E-01
      0.1055012191973054E+00
      0.1217848202213643E+00
      0.1012533114102656E+00
      0.1217848202213645E+00
      0.6256391607274814E-01
      0.1012533114102656E+00
      0.1217848202213645E+00
      0.6447550553254139E-01
      0.1012533114102652E+00
      0.1217848202213652E+00
      0.6447550554289583E-01
      0.1055012192222322E+00
      0.1217848202213649E+00
      0.7828086808087553E-01
      0.1130250068321530E+00
      0.1217848202213641E+00
      0.6256391607274814E-01
      0.1423301980313738E+00
      0.1620917705703295E+00
      0.1423301979712317E+00
      0.1423301980313729E+00
      0.1423301979712315E+00
      0.1561340760576209E+00
      0.1423301980313729E+00
      0.1423301979712319E+00
      0.1423301980313731E+00
      0.1561340760576198E+00
      0.1561340760576204E+00
      0.1347480644289378E+00
      0.1620917705703300E+00
      0.1217848202213645E+00
      0.1423301980313738E+00
      0.1217848202213645E+00
      0.1217848202213641E+00
      0.1055012191944849E+00
      0.1130250068321532E+00
      0.1217848202213652E+00
      0.6447550552684667E-01
      0.7828086808087531E-01
      0.1055012192222320E+00
      0.1217848202213654E+00
      0.6447550554289605E-01
      0.1012533114102652E+00
      0.1217848202213645E+00
      0.1012533114102658E+00
      0.1217848202213645E+00
      0.6256391607274814E-01
      0.1012533114102654E+00
      0.1217848202213643E+00
      0.1055012191973055E+00
      0.1217848202213644E+00
      0.6447550553254150E-01
      0.6256391607274825E-01
      0.1423301979712317E+00
      0.1620917704945221E+00
      0.1423301980313735E+00
      0.1423301979712317E+00
      0.1423301980313731E+00
      0.1561340760576198E+00
      0.1423301979712310E+00
      0.1423301980313729E+00
      0.1423301979712317E+00
      0.1561340760576204E+00
      0.1561340760576204E+00
      0.1347480644289378E+00
      0.1620917705293516E+00
      0.1217848202213646E+00
      0.1423301980046559E+00
      0.1217848202213644E+00
      0.1217848202213643E+00
      0.1055012191944847E+00
      0.1217848202213643E+00
      0.1217848202213644E+00
      0.6447550552684683E-01
      0.1012533113917852E+00
      0.6256391607030488E-01
      0.1012533113917852E+00
      0.1217848202213643E+00
      0.1217848202213646E+00
      0.1217848202213643E+00
      0.1217848202213645E+00
      0.1217848202213644E+00
      0.1217848202213646E+00
      0.1012533113917853E+00
      0.1217848202213642E+00
      0.1217848202213647E+00
      0.6256391607030465E-01
      0.1012533113917852E+00
      0.1217848202213643E+00
      0.1217848202213641E+00
      0.6256391607030504E-01
      0.1012533113917852E+00
      0.6256391607030481E-01
      0.1423301980046561E+00
      0.1620917705293516E+00
      0.1423301980046554E+00
      0.1423301980046554E+00
      0.1423301980046554E+00
      0.1561340761346097E+00
      0.1423301980046554E+00
      0.1423301980046555E+00
      0.1423301980046556E+00
      0.1561340761346096E+00
      0.1561340761346098E+00
      0.1620917704945223E+00
      0.1423301979712318E+00
      0.1217848202213644E+00
      0.1055012191973057E+00
      0.1217848202213645E+00
      0.1012533114102655E+00
      0.1217848202213643E+00
      0.6256391607274836E-01
      0.1012533114102655E+00
      0.1217848202213646E+00
      0.6447550553254122E-01
      0.1012533114102654E+00
      0.1217848202213642E+00
      0.6447550554289627E-01
      0.1055012192222321E+00
      0.1217848202213645E+00
      0.7828086808087553E-01
      0.1130250068321533E+00
      0.1217848202213643E+00
      0.6256391607274836E-01
      0.1423301980313734E+00
      0.1620917705703306E+00
      0.1423301979712321E+00
      0.1423301980313738E+00
      0.1423301979712319E+00
      0.1561340760576204E+00
      0.1423301980313734E+00
      0.1423301979712320E+00
      0.1423301980313734E+00
      0.1561340760576203E+00
      0.1561340760576206E+00
      0.3558254950116388E-01
      0.3558254950116396E-01
      0.3044620505534108E-01
      0.3044620505534107E-01
      0.3044620505534118E-01
      0.3368701610723440E-01
      0.4052294264258249E-01
      0.3558254950784312E-01
      0.4052294263233785E-01
      0.2637530479862117E-01
      0.2825625170803833E-01
      0.1611887638171174E-01
      0.1903334311454707E-01
      0.2457306573519746E-01
      0.1280041514825672E-01
      0.1903334311405486E-01
      0.1280041514896191E-01
      0.2457306573288704E-01
      0.1903334310990785E-01
      0.3558254949280795E-01
      0.3903351901440510E-01
      0.3044620505534112E-01
      0.3558254950784326E-01
      0.2825625170474498E-01
      0.3044620505534112E-01
      0.3044620505534112E-01
      0.3044620505534111E-01
      0.3558254949280795E-01
      0.4052294262363063E-01
      0.3368701613834583E-01
      0.2637530479932647E-01
      0.1611887638313526E-01
      0.3044620505534115E-01
      0.3558254950784323E-01
      0.3044620505534112E-01
      0.2531332785256632E-01
      0.1564097901818715E-01
      0.2531332785256635E-01
      0.1611887638572407E-01
      0.2637530480555800E-01
      0.3044620505534118E-01
      0.2825625170803833E-01
      0.3558254949280787E-01
      0.3044620505534124E-01
      0.3044620505534110E-01
      0.3903351901440522E-01
      0.3558254950784323E-01
      0.3044620505534118E-01
      0.3558254949280798E-01
      0.3903351901440505E-01
      0.3558254950116357E-01
      0.3903351903365260E-01
      0.3044620505534112E-01
      0.3558254950116402E-01
      0.2637530479862094E-01
      0.3044620505534112E-01
      0.1611887638171172E-01
      0.2531332784794627E-01
      0.3044620505534107E-01
      0.2531332784794638E-01
      0.3044620505534118E-01
      0.1564097901757622E-01
      0.2531332784794627E-01
      0.3044620505534115E-01
      0.1564097901757616E-01
      0.2531332784794624E-01
      0.3044620505534110E-01
      0.1564097901757623E-01
      0.2531332784794632E-01
      0.3044620505534112E-01
      0.2531332784794629E-01
      0.3044620505534111E-01
      0.1564097901757618E-01
      0.1564097901757616E-01
      0.3558254950116385E-01
      0.3903351903365244E-01
      0.3558254950116389E-01
      0.3558254950116387E-01
      0.3558254950116388E-01
      0.3903351903365243E-01
      0.3558254950116391E-01
      0.3558254950116374E-01
      0.3558254950116380E-01
      0.3903351903365238E-01
      0.3903351903365243E-01
      0.3368701613834575E-01
      0.4052294262363054E-01
      0.3044620505534117E-01
      0.3558254949280790E-01
      0.3044620505534108E-01
      0.3044620505534115E-01
      0.2457306573288699E-01
      0.2825625170474494E-01
      0.3044620505534107E-01
      0.3558254950784329E-01
      0.3903351901440522E-01
      0.3558254949280815E-01
      0.1280041514896196E-01
      0.1903334310990790E-01
      0.1280041514825669E-01
      0.2457306573519757E-01
      0.1903334311405491E-01
      0.1903334311454707E-01
      0.2825625170803836E-01
      0.3558254950784323E-01
      0.4052294264258283E-01
      0.3044620505534112E-01
      0.3368701610723424E-01
      0.3044620505534112E-01
      0.3558254950116435E-01
      0.4052294263233835E-01
      0.3044620505534112E-01
      0.3044620505534112E-01
      0.3558254949280759E-01
      0.3044620505534124E-01
      0.2825625170803814E-01
      0.2637530480555805E-01
      0.1611887638572401E-01
      0.2531332785256624E-01
      0.1564097901818706E-01
      0.3044620505534112E-01
      0.2531332785256646E-01
      0.1611887638313519E-01
      0.3558254950784323E-01
      0.3044620505534112E-01
      0.2637530479932629E-01
      0.3903351901440522E-01
      0.3558254949280804E-01
      0.3044620505534124E-01
      0.3558254950784356E-01
      0.3903351901440510E-01
      0.3558254950116368E-01
      0.3558254950116435E-01
      0.3044620505534124E-01