VARIABLES="X" "Y" "rho" "u" "v" "vel" "E" "p" "mach" "cp" "vorticity" "resid"
 ZONE T="FlowField"
VARLOCATION=([1,2]=NODAL ,[3,4,5,6,7,8,9,10,11,12]=CELLCENTERED)
 ZONETYPE=FEPOLYGON
 Nodes=   10184
 Elements=    5183
 Faces=   15366
 NumConnectedBoundaryFaces=0 
 TotalNumBoundaryConnections=0 
   9.3750000000000000        21.875000000000000        12.500000000000000        12.500000000000000        21.875000000000000        9.3750000000000000        7.8125000000000000        6.2500000000000000        4.6875000000000000        6.2500000000000000        4.6875000000000000        3.1250000000000000        1.5625000000000000        3.1250000000000000        4.6875000000000000        6.2500000000000000        7.8125000000000000        6.2500000000000000        4.6875000000000000        0.0000000000000000        1.5625000000000000        0.0000000000000000        1.5625000000000000        3.1250000000000000        4.6875000000000000        3.1250000000000000        1.5625000000000000        0.0000000000000000        0.0000000000000000        17.187500000000000        14.062500000000000        15.625000000000000        15.625000000000000        20.312500000000000        17.187500000000000        18.750000000000000        18.750000000000000        17.187500000000000        20.312500000000000        18.750000000000000        18.750000000000000        10.937500000000000        6.2500000000000000        17.187500000000000        14.062500000000000        15.625000000000000        15.625000000000000        10.937500000000000        7.8125000000000000        9.3750000000000000        9.3750000000000000        10.937500000000000        14.062500000000000        12.500000000000000        12.500000000000000        7.8125000000000000        10.937500000000000        9.3750000000000000        9.3750000000000000        14.062500000000000        17.187500000000000        15.625000000000000        15.625000000000000        10.937500000000000        14.062500000000000        12.500000000000000        12.500000000000000        14.062500000000000        10.937500000000000        12.500000000000000        12.500000000000000        9.3750000000000000        7.8125000000000000        10.937500000000000        9.3750000000000000        15.625000000000000        14.062500000000000        17.187500000000000        15.625000000000000        12.500000000000000        14.062500000000000        10.937500000000000        12.500000000000000        6.2500000000000000        10.937500000000000        18.750000000000000        17.187500000000000        20.312500000000000        18.750000000000000        15.625000000000000        14.062500000000000        17.187500000000000        15.625000000000000        18.750000000000000        20.312500000000000        17.187500000000000        18.750000000000000        12.500000000000000        14.062500000000000        10.937500000000000      
   12.500000000000000        15.625000000000000        17.187500000000000        14.062500000000000        15.625000000000000        9.3750000000000000        10.937500000000000        7.8125000000000000        9.3750000000000000        12.500000000000000        10.937500000000000        14.062500000000000        12.500000000000000        4.6875000000000000        1.5625000000000000        3.1250000000000000        4.6875000000000000        3.1250000000000000        4.6875000000000000        6.2500000000000000        7.8125000000000000        6.2500000000000000        7.8125000000000000        6.2500000000000000        4.6875000000000000        6.2500000000000000        4.6875000000000000        3.1250000000000000        1.5625000000000000        3.1250000000000000        1.5625000000000000        0.0000000000000000        0.0000000000000000        0.0000000000000000        1.5625000000000000        0.0000000000000000        3.9062500000000000        3.1250000000000000        2.3437500000000000        3.1250000000000000        2.3437500000000000        1.5625000000000000       0.78125000000000000        1.5625000000000000        2.3437500000000000        3.1250000000000000        3.9062500000000000        3.1250000000000000        0.0000000000000000       0.78125000000000000        0.0000000000000000       0.78125000000000000        1.5625000000000000        2.3437500000000000        1.5625000000000000       0.78125000000000000        0.0000000000000000        0.0000000000000000        8.5937500000000000        7.0312500000000000        7.8125000000000000        7.8125000000000000        10.156250000000000        8.5937500000000000        9.3750000000000000        9.3750000000000000        8.5937500000000000        10.156250000000000        9.3750000000000000        9.3750000000000000        8.5937500000000000        7.0312500000000000        7.8125000000000000        7.8125000000000000        5.4687500000000000        3.9062500000000000        4.6875000000000000        4.6875000000000000        5.4687500000000000        7.0312500000000000        6.2500000000000000        6.2500000000000000        5.4687500000000000        7.0312500000000000        8.5937500000000000        7.8125000000000000        7.8125000000000000        7.0312500000000000        7.0312500000000000        6.2500000000000000        6.2500000000000000        4.6875000000000000        3.9062500000000000        5.4687500000000000        4.6875000000000000        7.8125000000000000        7.0312500000000000        8.5937500000000000        7.8125000000000000        6.2500000000000000      
   7.0312500000000000        5.4687500000000000        6.2500000000000000        9.3750000000000000        8.5937500000000000        10.156250000000000        9.3750000000000000        7.8125000000000000        7.0312500000000000        8.5937500000000000        7.8125000000000000        9.3750000000000000        10.156250000000000        8.5937500000000000        9.3750000000000000        7.0312500000000000        7.8125000000000000        8.5937500000000000        7.0312500000000000        7.8125000000000000        5.4687500000000000        6.2500000000000000        7.0312500000000000        6.2500000000000000       0.78125000000000000        1.5625000000000000        2.3437500000000000        1.5625000000000000        2.3437500000000000        3.1250000000000000        3.9062500000000000        3.1250000000000000        3.9062500000000000        3.1250000000000000        2.3437500000000000        3.1250000000000000        2.3437500000000000        1.5625000000000000       0.78125000000000000        1.5625000000000000       0.78125000000000000        0.0000000000000000        0.0000000000000000        0.0000000000000000       0.78125000000000000        0.0000000000000000        2.7343750000000000        2.3437500000000000        1.9531250000000000        2.3437500000000000        1.9531250000000000        1.5625000000000000        1.1718750000000000        1.5625000000000000        1.1718750000000000       0.78125000000000000       0.39062500000000000       0.78125000000000000        1.1718750000000000        1.5625000000000000        1.9531250000000000        1.5625000000000000        0.0000000000000000       0.39062500000000000        0.0000000000000000       0.39062500000000000       0.78125000000000000        1.1718750000000000       0.78125000000000000       0.39062500000000000        0.0000000000000000        0.0000000000000000        5.8593750000000000        5.0781250000000000        5.4687500000000000        5.4687500000000000        4.2968750000000000        3.9062500000000000        3.9062500000000000        5.0781250000000000        4.2968750000000000        4.6875000000000000        4.6875000000000000        4.2968750000000000        5.0781250000000000        4.6875000000000000        4.6875000000000000        4.2968750000000000        3.5156250000000000        3.9062500000000000        3.9062500000000000        2.7343750000000000        1.9531250000000000        2.3437500000000000        2.3437500000000000        3.5156250000000000        2.7343750000000000        3.1250000000000000        3.1250000000000000        2.7343750000000000      
   3.5156250000000000        3.1250000000000000        3.1250000000000000        2.7343750000000000        3.5156250000000000        4.2968750000000000        3.9062500000000000        3.9062500000000000        3.5156250000000000        3.5156250000000000        3.1250000000000000        3.1250000000000000        3.5156250000000000        4.2968750000000000        3.9062500000000000        3.9062500000000000        4.2968750000000000        5.0781250000000000        4.6875000000000000        4.6875000000000000        5.0781250000000000        4.2968750000000000        4.6875000000000000        4.6875000000000000        5.0781250000000000        5.8593750000000000        5.4687500000000000        5.4687500000000000        5.8593750000000000        6.6406250000000000        6.2500000000000000        6.2500000000000000        6.6406250000000000        5.8593750000000000        6.2500000000000000        6.2500000000000000        5.8593750000000000        5.0781250000000000        5.4687500000000000        5.4687500000000000        3.1250000000000000        2.7343750000000000        3.5156250000000000        3.1250000000000000        2.3437500000000000        1.9531250000000000        2.7343750000000000        2.3437500000000000        3.9062500000000000        3.5156250000000000        4.2968750000000000        3.9062500000000000        3.1250000000000000        3.5156250000000000        2.7343750000000000        3.1250000000000000        4.6875000000000000        4.2968750000000000        5.0781250000000000        4.6875000000000000        3.9062500000000000        4.2968750000000000        3.9062500000000000        5.4687500000000000        5.0781250000000000        5.8593750000000000        5.4687500000000000        4.6875000000000000        5.0781250000000000        4.2968750000000000        4.6875000000000000        3.5156250000000000        3.9062500000000000        4.2968750000000000        3.5156250000000000        3.9062500000000000        2.7343750000000000        3.1250000000000000        3.5156250000000000        3.1250000000000000        6.2500000000000000        6.6406250000000000        5.8593750000000000        6.2500000000000000        5.4687500000000000        5.8593750000000000        5.0781250000000000        5.4687500000000000        6.2500000000000000        5.8593750000000000        6.6406250000000000        6.2500000000000000        4.6875000000000000        5.0781250000000000        4.2968750000000000        4.6875000000000000        3.9062500000000000        4.2968750000000000        3.5156250000000000        3.9062500000000000      
   4.6875000000000000        4.2968750000000000        5.0781250000000000        4.6875000000000000        5.4687500000000000        5.0781250000000000        5.8593750000000000        5.4687500000000000       0.39062500000000000       0.78125000000000000        1.1718750000000000       0.78125000000000000        1.1718750000000000        1.5625000000000000        1.9531250000000000        1.5625000000000000        1.9531250000000000        2.3437500000000000        2.7343750000000000        2.3437500000000000        1.9531250000000000        1.5625000000000000        1.1718750000000000        1.5625000000000000        1.1718750000000000       0.78125000000000000       0.39062500000000000       0.78125000000000000       0.39062500000000000        0.0000000000000000        0.0000000000000000        0.0000000000000000       0.39062500000000000        0.0000000000000000        1.3671875000000000        1.1718750000000000       0.97656250000000000        1.1718750000000000       0.97656250000000000       0.78125000000000000       0.58593750000000000       0.78125000000000000       0.58593750000000000       0.39062500000000000       0.19531250000000000       0.39062500000000000       0.58593750000000000       0.78125000000000000       0.97656250000000000       0.78125000000000000        0.0000000000000000       0.19531250000000000        0.0000000000000000       0.39062500000000000       0.19531250000000000        0.0000000000000000        3.7109375000000000        3.3203125000000000        3.5156250000000000        3.5156250000000000        2.9296875000000000        2.5390625000000000        2.7343750000000000        2.7343750000000000        2.5390625000000000        2.3437500000000000        2.3437500000000000        2.5390625000000000        2.1484375000000000        1.7578125000000000        1.9531250000000000        1.9531250000000000        1.3671875000000000       0.97656250000000000        1.1718750000000000        1.1718750000000000        1.7578125000000000        1.3671875000000000        1.5625000000000000        1.5625000000000000        1.3671875000000000        1.7578125000000000        1.5625000000000000        1.5625000000000000        2.1484375000000000        1.7578125000000000        2.1484375000000000        1.9531250000000000        1.9531250000000000        2.1484375000000000        2.5390625000000000        2.3437500000000000        2.3437500000000000        2.5390625000000000        2.1484375000000000        2.3437500000000000        2.3437500000000000        2.5390625000000000        2.9296875000000000        2.7343750000000000      
   2.7343750000000000        2.9296875000000000        3.3203125000000000        3.1250000000000000        3.1250000000000000        3.3203125000000000        2.9296875000000000        3.1250000000000000        3.1250000000000000        2.9296875000000000        2.5390625000000000        2.7343750000000000        2.7343750000000000        1.5625000000000000        1.3671875000000000        1.7578125000000000        1.5625000000000000        1.1718750000000000       0.97656250000000000        1.3671875000000000        1.1718750000000000        1.9531250000000000        1.7578125000000000        2.1484375000000000        1.9531250000000000        1.5625000000000000        1.7578125000000000        1.3671875000000000        1.5625000000000000        2.3437500000000000        2.5390625000000000        2.3437500000000000        2.7343750000000000        2.5390625000000000        2.9296875000000000        2.7343750000000000        2.5390625000000000        2.1484375000000000        3.5156250000000000        3.3203125000000000        3.7109375000000000        3.5156250000000000        3.1250000000000000        3.3203125000000000        2.9296875000000000        3.1250000000000000        2.7343750000000000        2.9296875000000000        2.5390625000000000        2.7343750000000000        3.1250000000000000        2.9296875000000000        3.3203125000000000        3.1250000000000000        2.3437500000000000        2.5390625000000000        2.1484375000000000        2.3437500000000000        1.9531250000000000        2.1484375000000000        1.7578125000000000        1.9531250000000000        2.3437500000000000        2.1484375000000000        2.5390625000000000        2.3437500000000000        2.7343750000000000        2.5390625000000000        2.9296875000000000        2.7343750000000000       0.19531250000000000       0.39062500000000000       0.58593750000000000       0.39062500000000000       0.58593750000000000       0.78125000000000000       0.97656250000000000       0.78125000000000000       0.97656250000000000        1.1718750000000000        1.3671875000000000        1.1718750000000000       0.97656250000000000       0.78125000000000000       0.58593750000000000       0.78125000000000000       0.58593750000000000       0.39062500000000000       0.19531250000000000       0.39062500000000000       0.19531250000000000        0.0000000000000000        0.0000000000000000        0.0000000000000000       0.19531250000000000        0.0000000000000000       0.68359375000000000       0.58593750000000000       0.48828125000000000       0.58593750000000000      
  0.29296875000000000       0.19531250000000000        9.7656250000000000E-002  0.19531250000000000       0.29296875000000000       0.39062500000000000       0.48828125000000000       0.39062500000000000        9.7656250000000000E-002   9.7656250000000000E-002  0.19531250000000000       0.29296875000000000       0.19531250000000000       0.48828125000000000       0.58593750000000000       0.68359375000000000       0.58593750000000000       0.48828125000000000       0.39062500000000000       0.29296875000000000       0.39062500000000000        9.7656250000000000E-002   2.2460937500000000        2.0507812500000000        2.1484375000000000        2.1484375000000000        1.8554687500000000        1.7578125000000000        1.7578125000000000        2.0507812500000000        1.8554687500000000        1.9531250000000000        1.9531250000000000        1.8554687500000000        2.0507812500000000        1.9531250000000000        1.9531250000000000        2.2460937500000000        2.0507812500000000        2.1484375000000000        2.1484375000000000        2.0507812500000000        2.2460937500000000        2.1484375000000000        2.1484375000000000        2.2460937500000000        2.4414062500000000        2.3437500000000000        2.3437500000000000        2.4414062500000000        2.2460937500000000        2.3437500000000000        2.3437500000000000        1.0742187500000000       0.87890625000000000       0.97656250000000000       0.97656250000000000       0.87890625000000000       0.68359375000000000       0.78125000000000000       0.78125000000000000       0.68359375000000000       0.87890625000000000       0.78125000000000000       0.78125000000000000       0.87890625000000000        1.0742187500000000       0.97656250000000000       0.97656250000000000        1.2695312500000000        1.4648437500000000        1.3671875000000000        1.3671875000000000        1.0742187500000000        1.2695312500000000        1.1718750000000000        1.1718750000000000        1.2695312500000000        1.0742187500000000        1.1718750000000000        1.1718750000000000        1.6601562500000000        1.8554687500000000        1.7578125000000000        1.7578125000000000        1.8554687500000000        2.0507812500000000        1.9531250000000000        1.9531250000000000        2.0507812500000000        1.8554687500000000        1.9531250000000000        1.9531250000000000        1.4648437500000000        1.6601562500000000        1.8554687500000000        1.7578125000000000        1.7578125000000000        1.6601562500000000        1.6601562500000000      
   1.5625000000000000        1.5625000000000000        1.8554687500000000        1.6601562500000000        1.7578125000000000        1.7578125000000000        1.4648437500000000        1.2695312500000000        1.3671875000000000        1.3671875000000000        1.6601562500000000        1.4648437500000000        1.5625000000000000        1.5625000000000000        1.4648437500000000        1.6601562500000000        1.5625000000000000        1.5625000000000000       0.78125000000000000       0.68359375000000000       0.87890625000000000       0.78125000000000000       0.58593750000000000       0.48828125000000000       0.68359375000000000       0.58593750000000000       0.97656250000000000       0.87890625000000000        1.0742187500000000       0.97656250000000000       0.78125000000000000       0.87890625000000000       0.68359375000000000       0.78125000000000000        2.1484375000000000        2.0507812500000000        2.2460937500000000        2.1484375000000000        1.9531250000000000        1.8554687500000000        2.0507812500000000        1.9531250000000000        1.7578125000000000        1.8554687500000000        1.7578125000000000        2.1484375000000000        2.0507812500000000        2.2460937500000000        2.1484375000000000        1.9531250000000000        2.0507812500000000        1.8554687500000000        1.9531250000000000        2.3437500000000000        2.4414062500000000        2.2460937500000000        2.3437500000000000        2.1484375000000000        2.2460937500000000        2.0507812500000000        2.1484375000000000        2.3437500000000000        2.2460937500000000        2.4414062500000000        2.3437500000000000        1.6601562500000000        1.7578125000000000        1.8554687500000000        1.6601562500000000        1.7578125000000000        1.4648437500000000        1.5625000000000000        1.6601562500000000        1.5625000000000000        1.9531250000000000        2.0507812500000000        1.8554687500000000        1.9531250000000000        1.7578125000000000        1.8554687500000000        1.6601562500000000        1.7578125000000000        1.9531250000000000        1.8554687500000000        2.0507812500000000        1.9531250000000000        1.1718750000000000        1.2695312500000000        1.0742187500000000        1.1718750000000000        1.3671875000000000        1.4648437500000000        1.2695312500000000        1.3671875000000000       0.97656250000000000        1.0742187500000000       0.87890625000000000       0.97656250000000000        1.1718750000000000        1.0742187500000000      
   1.2695312500000000        1.1718750000000000        1.5625000000000000        1.4648437500000000        1.6601562500000000        1.5625000000000000        1.3671875000000000        1.2695312500000000        1.4648437500000000        1.3671875000000000        1.7578125000000000        1.6601562500000000        1.8554687500000000        1.7578125000000000        1.5625000000000000        1.6601562500000000        1.4648437500000000        1.5625000000000000        9.7656250000000000E-002  0.19531250000000000       0.29296875000000000       0.19531250000000000       0.29296875000000000       0.39062500000000000       0.48828125000000000       0.39062500000000000       0.48828125000000000       0.58593750000000000       0.68359375000000000       0.58593750000000000       0.48828125000000000       0.39062500000000000       0.29296875000000000       0.39062500000000000       0.29296875000000000       0.19531250000000000        9.7656250000000000E-002  0.19531250000000000        9.7656250000000000E-002   9.7656250000000000E-002  0.53710937500000000       0.48828125000000000       0.43945312500000000       0.48828125000000000       0.43945312500000000       0.39062500000000000       0.34179687500000000       0.39062500000000000       0.34179687500000000       0.29296875000000000       0.24414062500000000       0.29296875000000000       0.34179687500000000       0.39062500000000000       0.43945312500000000       0.39062500000000000        9.7656250000000000E-002  0.14648437500000000       0.19531250000000000       0.24414062500000000       0.19531250000000000       0.29296875000000000       0.24414062500000000       0.14648437500000000       0.19531250000000000       0.14648437500000000        9.7656250000000000E-002   9.7656250000000000E-002   1.7089843750000000        1.6113281250000000        1.6601562500000000        1.6601562500000000        1.5136718750000000        1.4160156250000000        1.4648437500000000        1.4648437500000000        1.4160156250000000        1.3183593750000000        1.3671875000000000        1.3671875000000000        1.3183593750000000        1.4160156250000000        1.3671875000000000        1.3671875000000000        1.3183593750000000        1.2207031250000000        1.2695312500000000        1.2695312500000000        1.1230468750000000        1.0253906250000000        1.0742187500000000        1.0742187500000000        1.2207031250000000        1.1230468750000000        1.1718750000000000        1.1718750000000000        1.1230468750000000        1.2207031250000000        1.1718750000000000        1.1718750000000000      
   1.2207031250000000        1.3183593750000000        1.2695312500000000        1.2695312500000000       0.73242187500000000       0.63476562500000000       0.68359375000000000       0.68359375000000000       0.53710937500000000       0.43945312500000000       0.48828125000000000       0.48828125000000000       0.63476562500000000       0.53710937500000000       0.58593750000000000       0.58593750000000000       0.53710937500000000       0.63476562500000000       0.58593750000000000       0.58593750000000000       0.43945312500000000       0.53710937500000000       0.48828125000000000       0.48828125000000000       0.63476562500000000       0.73242187500000000       0.68359375000000000       0.68359375000000000       0.53710937500000000       0.63476562500000000       0.58593750000000000       0.58593750000000000       0.63476562500000000       0.53710937500000000       0.58593750000000000       0.58593750000000000       0.83007812500000000       0.92773437500000000       0.87890625000000000       0.87890625000000000        1.0253906250000000        1.1230468750000000        1.0742187500000000        1.0742187500000000       0.92773437500000000        1.0253906250000000       0.97656250000000000       0.97656250000000000        1.0253906250000000       0.92773437500000000       0.97656250000000000       0.97656250000000000       0.92773437500000000       0.83007812500000000       0.87890625000000000       0.87890625000000000       0.73242187500000000       0.63476562500000000       0.68359375000000000       0.68359375000000000       0.83007812500000000       0.73242187500000000       0.78125000000000000       0.78125000000000000       0.73242187500000000       0.83007812500000000       0.78125000000000000       0.78125000000000000        1.2207031250000000        1.3183593750000000        1.2695312500000000        1.2695312500000000        1.3183593750000000        1.4160156250000000        1.3671875000000000        1.3671875000000000        1.4160156250000000        1.3183593750000000        1.3671875000000000        1.3671875000000000        1.4160156250000000        1.5136718750000000        1.4648437500000000        1.4648437500000000        1.5136718750000000        1.6113281250000000        1.5625000000000000        1.5625000000000000        1.6113281250000000        1.5136718750000000        1.5625000000000000        1.5625000000000000        1.5136718750000000        1.4160156250000000        1.4648437500000000        1.4648437500000000       0.39062500000000000       0.34179687500000000       0.43945312500000000       0.39062500000000000      
  0.29296875000000000       0.24414062500000000       0.34179687500000000       0.29296875000000000       0.48828125000000000       0.43945312500000000       0.53710937500000000       0.48828125000000000       0.39062500000000000       0.43945312500000000       0.34179687500000000       0.39062500000000000        1.1718750000000000        1.1230468750000000        1.2207031250000000        1.1718750000000000        1.0742187500000000        1.0253906250000000        1.1230468750000000        1.0742187500000000        1.2695312500000000        1.2207031250000000        1.3183593750000000        1.2695312500000000        1.1718750000000000        1.2207031250000000        1.1230468750000000        1.1718750000000000        1.3671875000000000        1.3183593750000000        1.4160156250000000        1.3671875000000000        1.4648437500000000        1.4160156250000000        1.5136718750000000        1.4648437500000000        1.3671875000000000        1.4160156250000000        1.3183593750000000        1.3671875000000000        1.2695312500000000        1.3183593750000000        1.2207031250000000        1.2695312500000000       0.97656250000000000        1.0253906250000000       0.92773437500000000       0.97656250000000000        1.0742187500000000        1.1230468750000000        1.0253906250000000        1.0742187500000000       0.87890625000000000       0.92773437500000000       0.83007812500000000       0.87890625000000000       0.97656250000000000       0.92773437500000000        1.0253906250000000       0.97656250000000000       0.58593750000000000       0.63476562500000000       0.53710937500000000       0.58593750000000000       0.68359375000000000       0.73242187500000000       0.63476562500000000       0.68359375000000000       0.48828125000000000       0.53710937500000000       0.43945312500000000       0.48828125000000000       0.58593750000000000       0.53710937500000000       0.63476562500000000       0.58593750000000000       0.78125000000000000       0.73242187500000000       0.83007812500000000       0.78125000000000000       0.68359375000000000       0.63476562500000000       0.73242187500000000       0.68359375000000000       0.87890625000000000       0.83007812500000000       0.92773437500000000       0.87890625000000000       0.78125000000000000       0.83007812500000000       0.73242187500000000       0.78125000000000000        1.6601562500000000        1.6113281250000000        1.7089843750000000        1.6601562500000000        1.5625000000000000        1.6113281250000000        1.5136718750000000        1.5625000000000000      