VARIABLES="X" "Y" "mach" "cp"
 ZONE T="EDGE2D"
 DATAPACKING=POINT

  0.30666332657065370       -5.0064881468991101E-002   1.6607078639442068       0.15677827980837297     
  0.31005859375000000       -5.0452295379537951E-002   1.6607698325893083       0.15571313142285192     
  0.32206594408445599       -5.1825449871323703E-002   1.6557541877372828       0.15619607955811893     
  0.25380126905172595       -4.3429264840019251E-002   1.6226685165637547       0.17799967463425725     
  0.26234123437500001       -4.4543642550135903E-002   1.6334797373226431       0.17564108231594486     
  0.27275739843750002       -4.5902446170240446E-002   1.6399121085339801       0.17443320298646153     
  0.28256271093749996       -4.7168143005650101E-002   1.6365542349495588       0.17037536567501632     
  0.28449413749524866       -4.7409730860931046E-002   1.6499509976642799       0.16953593506524911     
  0.30114648437500002       -4.9423029224697601E-002   1.6498019130344179       0.16109247000161803     
  0.21451302343750001       -3.7909008245734302E-002   1.6048547285866566       0.19973903511550103     
  0.22343105217666132       -3.9199478998697350E-002   1.6103806252571313       0.20037728064920921     
  0.23292479687500001       -4.0571745678765501E-002   1.6035779616846872       0.19844047018072133     
  0.24169921875000000       -4.1799669997460653E-002   1.6189871663199698       0.19204982354239813     
  0.25236631247845065       -4.3240707525569001E-002   1.6342389043536287       0.18127952776431355     
  0.17433892187500000       -3.1781156081784501E-002   1.5805305529295313       0.22154735154767569     
  0.18450708593749998       -3.3379518128342250E-002   1.5819910870334253       0.21979541957995696     
  0.19407475540388747       -3.4880936938757448E-002   1.5905185157160027       0.21815080607484863     
  0.19523089300132013       -3.5057834792783654E-002   1.5803381566120287       0.20997074964899826     
  0.20980292353010299       -3.7229674735197851E-002   1.6041579229100782       0.20321691333539846     
  0.16950916439179770       -3.1049279374295000E-002   1.6062346050413543       0.19014787217950932     
  0.16841169775739456        3.0899385444900701E-002   1.6034434641941191       0.18673186307613432     
  0.17211914062500000        3.1437119296541749E-002   1.5891854981314890       0.21498978110389930     
  0.17555962500000000        3.1970891122994650E-002   1.5805305529295322       0.22154735154767449     
  0.18572778906249998        3.3571160075316103E-002   1.5819910870334251       0.21979541957995602     
  0.19472584445281449        3.4981859485486849E-002   1.5905185157160031       0.21815080607484783     
  0.20472856249999999        3.6485279861907902E-002   1.5898836614277958       0.20827464727168407     
  0.21083082031250000        3.7379453134521651E-002   1.6041579229100762       0.20321691333539749     
  0.21573372656250001        3.8084889908380951E-002   1.6048547285866561       0.19973903511550009     
  0.22827148437500000        3.9899222452328353E-002   1.6078449374967685       0.19956860372802546     
  0.23414550000000001        4.0746983138649051E-002   1.6035779616846875       0.19844047018072078     
  0.24456116406250000        4.2194277371148101E-002   1.6215502694243029       0.18724369690300968     
  0.25289868494505019        4.3310827031180651E-002   1.6342389043536292       0.18127952776431253     
  0.25808503125000004        4.3990497390256955E-002   1.6359290298090534       0.17619079827917666     
  0.26356193750000001        4.4702347926823052E-002   1.6334797373226437       0.17564108231594383     
  0.27397810156250002        4.6060732756157949E-002   1.6399121085339807       0.17443320298645931     
  0.28365409138605591        4.7306068863909999E-002   1.6365542349495588       0.17037536567501307     
  0.29419957812499997        4.8601211217539700E-002   1.6519846708189647       0.16080363369502554     
  0.30216883589456078        4.9543582631686803E-002   1.6498019130344175       0.16109247000161700     
  0.31005859375000000        5.0452295379537951E-002   1.6607698325893079       0.15571313142285098     
  0.31963622264998026        5.1547309083446201E-002   1.6549193522226360       0.15704329858205801     
  0.43546089537010152       -6.2515112933789946E-002   1.7269143007729091        9.4829397698870707E-002
  0.43945835214592444       -6.2805075996659243E-002   1.7342610037614825        9.3891948955002982E-002
  0.44921875000000000       -6.3505972219400700E-002   1.7350048271832805        9.2770654997029259E-002
  0.46017038454587733       -6.4278513354691549E-002   1.7440073881175497        8.9595562534857426E-002
  0.46947850000000002       -6.4914274047739945E-002   1.7464228900783787        8.5086860303173001E-002
  0.47928431250000003       -6.5554956460745495E-002   1.7509258348466150        7.9379702135441849E-002
  0.36464589121714441       -5.6329468369739850E-002   1.6963036218169145       0.12653303995968090     
  0.36987304687500000       -5.6828982551192897E-002   1.6984037235773326       0.12362906531987204     
  0.38131506581154362       -5.7918074412494053E-002   1.6952763858802087       0.12293681316854047     
  0.39042364843749999       -5.8775121935309801E-002   1.7023998702015670       0.12208811875744627     
  0.40022946093750000       -5.9667903272109246E-002   1.7023756784318995       0.11794190266280105     
  0.40514059342396336       -6.0094583691543850E-002   1.7086217857845336       0.11239455272735065     
  0.42045093750000001       -6.1362227935202102E-002   1.7210469866979419       0.10361187371445776     
  0.43018815908555619       -6.2115091467623146E-002   1.7228722087042301        9.9968505247951478E-002
  0.32469723348322133       -5.2124433556851299E-002   1.6534480420624482       0.15404270154030125     
  0.34167100517066512       -5.4009546018618002E-002   1.6783695456061061       0.14433144917830007     
  0.34667968750000000       -5.4530057301188303E-002   1.6838228460969105       0.13607113703645546     
  0.36009659210801792       -5.5885313195433453E-002   1.6958479215847648       0.12999181351666395     
  0.32261581635901820        5.1888302851211002E-002   1.6557541877372814       0.15619607955811901     
  0.34044807538706257        5.3876135496770450E-002   1.6671543956412569       0.14586319167883680     
  0.34249470960703982        5.4097788103835004E-002   1.6783695456061047       0.14433144917830160     
  0.35242260156249999        5.5121874078400648E-002   1.6841589472479335       0.13501518666005902     
  0.36372802900112622        5.6239975405350501E-002   1.6864395514771842       0.12699392525279402     
  0.36576446875000002        5.6437537355261101E-002   1.6963036218169152       0.12653303995968146     
  0.37264357812500004        5.7092847522153656E-002   1.6976241582825256       0.12389551381327263     
  0.38221573820562238        5.8003103156770555E-002   1.6952763858802093       0.12293681316853991     
  0.39164435156249999        5.8889261928225953E-002   1.7023998702015657       0.12208811875744627     
  0.40514059342396336        6.0094583691543850E-002   1.7086217857845338       0.11239455272735041     
  0.41186582812500000        6.0668164654428203E-002   1.7164576794936879       0.10982950201985654     
  0.42167164062500001        6.1458336188255497E-002   1.7210469866979421       0.10361187371445729     
  0.43116671964162778        6.2189756942174899E-002   1.7228722087042299        9.9968505247950756E-002
  0.43578784542309945        6.2538942968612204E-002   1.7269143007729097        9.4829397698870707E-002
  0.44067241406250002        6.2893101404583554E-002   1.7342610037614843        9.3891948955002108E-002
  0.45169842968750001        6.3682224027365147E-002   1.7355600354493519        9.0954545897824438E-002
  0.46132723262431335        6.4357884847489943E-002   1.7377286204862710        8.7144612546128181E-002
  0.47069920312500002        6.4996043693187594E-002   1.7464228900783765        8.5086860303172127E-002
  0.54684137428564306       -6.8707200988562256E-002   1.7931087945239168        4.0051239536953512E-002
  0.55173986412710474       -6.8857573825156060E-002   1.7971705834496552        3.6410652618855552E-002
  0.55908187621987504       -6.9065753065636198E-002   1.8028670782869125        3.7040287064032423E-002
  0.57733993750000001       -6.9499493861720496E-002   1.8113872956263311        3.0274319926604700E-002
  0.57983398437500000       -6.9549243492889795E-002   1.8140309508479451        2.7036073821756584E-002
  0.58959960937500000       -6.9722978725497708E-002   1.8188884882755889        2.2496198560140401E-002
  0.60797707812500001       -6.9951286257300654E-002   1.8291754909929849        1.3409338678933144E-002
  0.61778289062500003       -7.0018271142786401E-002   1.8349252582732083        8.5647129586800246E-003
  0.62758820312499997       -7.0046582497460652E-002   1.8411790779542236        3.4465739154769582E-003
  0.63739401562499998       -7.0034246881665152E-002   1.8483432825596455       -2.3825380224551979E-003
  0.48908962499999997       -6.6150226536312848E-002   1.7552323441978976        7.2503687206636719E-002
  0.49969528700812682       -6.6737323407616955E-002   1.7712982029419024        6.4056603215835270E-002
  0.50931110156250003       -6.7218112134967006E-002   1.7775520643358449        5.7619483938823164E-002
  0.51269531250000000       -6.7372077468007302E-002   1.7796093632128749        5.5078548161854153E-002
  0.52246093750000000       -6.7799865191721709E-002   1.7837938355984200        5.0413799682777788E-002
  0.53877568824919542       -6.8431013631013254E-002   1.7892435732807528        4.4533839665753652E-002
  0.54193774598879485       -6.8540831545029490E-002   1.7901951922970900        4.3665881496587421E-002
  0.48050501562500003        6.5632272451117302E-002   1.7509258348466157        7.9379702135441058E-002
  0.49031032812499997        6.6221655851678357E-002   1.7552323441978976        7.2503687206636885E-002
  0.50169157357608851        6.6837329222898506E-002   1.7679661206072101        5.8662304465988864E-002
  0.51757812500000000        6.7592265234613050E-002   1.7800037616223507        5.5359959818905131E-002
  0.52734375000000000        6.7999740604367698E-002   1.7839621765123548        5.0729536834597737E-002
  0.53014292968749999        6.8110989573018255E-002   1.7858912565989309        4.7738560355855629E-002
  0.53983623529555214        6.8468459243927748E-002   1.7892435732807539        4.4533839665752709E-002
  0.54615591656479867        6.8685893586837493E-002   1.7972947428202639        4.3472492791163553E-002
  0.55119638818439620        6.8842105663709741E-002   1.8006633102936365        3.9688556473202186E-002
  0.56030441222506133        6.9096921835296102E-002   1.8050176226934076        3.5061473541221133E-002
  0.56875482812500000        6.9312027020807951E-002   1.8070306085132208        3.4135902804457309E-002
  0.58227539062500000        6.9593880681818210E-002   1.8151739237598801        2.5900369462083819E-002
  0.59448242187500000        6.9793399137340006E-002   1.8201136808403120        2.1714545203443601E-002
  0.60180664062500000        6.9885476614080760E-002   1.8251274893991780        1.7058479468254544E-002
  0.61401367187500000        6.9992622386311695E-002   1.8309039558077373        1.2631379832704391E-002
  0.62133789062500000        7.0028806088115791E-002   1.8364717785805744        7.5206354967898934E-003
  0.63354492187500000        7.0039328967664544E-002   1.8435144464386670        2.3332863086854825E-003
  0.64719932812499992       -6.9973427491747106E-002   1.8562217890017905       -8.4094104189924752E-003
  0.65700514062499993       -6.9862062676150194E-002   1.8641113894852828       -1.4196037314929100E-002
  0.66681045312499998       -6.9701075382491096E-002   1.8717452399777081       -1.9646331095713565E-002
  0.67661626562499999       -6.9491465741163952E-002   1.8791212069598358       -2.4840147556416042E-002
  0.68642157812500004       -6.9234205148552552E-002   1.8863208324096157       -2.9895220319197297E-002
  0.69452203920338684       -6.8983474910071146E-002   1.8907944401871006       -3.3175105234405415E-002
  0.69941652832639367       -6.8824488460322492E-002   1.8930039443234963       -3.4475731412706788E-002
  0.70316944254548741       -6.8689903227446905E-002   1.8960373849217858       -4.2355616567732506E-002
  0.70807942956244085       -6.8493731804966262E-002   1.9007461439195255       -4.4173212620417200E-002
  0.72503347656249995       -6.7744920188706204E-002   1.9106840251590409       -4.8929866915383230E-002
  0.72753906250000000       -6.7620573621267499E-002   1.9149054642200973       -5.3490762471452673E-002
  0.73730468750000000       -6.7102773082783146E-002   1.9230328969064827       -5.8332215452204642E-002
  0.75506026562500006       -6.6003345427564752E-002   1.9358676701542261       -6.9431717519030434E-002
  0.76486607812500007       -6.5301832684275349E-002   1.9448622093490591       -7.4427961499118719E-002
  0.77490792769603689       -6.4526505458631561E-002   1.9538923353088953       -7.9264684626591864E-002
  0.78508755468750002       -6.3623662850872204E-002   1.9609523194405971       -8.5680926509352606E-002
  0.70562215777309578        6.8593747623358250E-002   1.8981109615080189       -4.2442776872019222E-002
  0.70680957446396020        6.8546539967251449E-002   1.9027036651637401       -4.1618551375362904E-002
  0.71644886718750000        6.8145157436357295E-002   1.9026499113203490       -4.4220635762844816E-002
  0.73242187500000000        6.7365671567133856E-002   1.9171625631252931       -5.4700415901944577E-002
  0.73730468750000000        6.7102773082783146E-002   1.9230328969064829       -5.8332215452205391E-002
  0.74620734713189008        6.6579751801773349E-002   1.9257972488950397       -6.4144211473426874E-002
  0.75628096875000006        6.5920037289889294E-002   1.9358676701542255       -6.9431717519030267E-002
  0.76608678125000007        6.5211051510919243E-002   1.9448622093490591       -7.4427961499119316E-002
  0.77648708504844399        6.4391468336625804E-002   1.9567778780652627       -8.9093565780340195E-002
  0.64331054687500000        6.9997917531107207E-002   1.8512091835177591       -3.8652135712889325E-003
  0.65063476562500000        6.9935173825347891E-002   1.8584996407586465       -1.0254028830167988E-002
  0.66528320312500000        6.9726361492191441E-002   1.8683298119560032       -1.6219016479360384E-002
  0.67016601562500000        6.9630349856540694E-002   1.8742666574091911       -2.1959795646701412E-002
  0.68237304687500000        6.9341124206450000E-002   1.8827065155610616       -2.7921257711046383E-002
  0.69581243076022870        6.8943240275910006E-002   1.8873398138536674       -3.3661448259988867E-002
  0.69728113858416241        6.8895998385117813E-002   1.8919879268267432       -3.3969824848409075E-002
  0.15228059375000000       -2.8288938325040598E-002   1.5556298287105785       0.23186123883539375     
  0.15754185156250000       -2.9243749227412900E-002   1.5615086452145142       0.23129154586890602     
  0.16483109247505229       -3.0406577024737452E-002   1.5938166023197564       0.21311878726513370     
  0.13341732031250000       -2.5214254039525798E-002   1.5530309347972757       0.23449470656218402     
  0.13671002343749999       -2.5756953675494701E-002   1.5469615196392519       0.23617267809118103     
  0.14236868511362677       -2.6692243079929352E-002   1.5609026647843112       0.23320404687532681     
  0.14712618750000001       -2.7464094949725799E-002   1.5626132074183359       0.22608096051148785     
  0.14982889062499999       -2.7898270933493598E-002   1.5655076293821446       0.22357445454771063     
  0.11412819531250000       -2.1948368889044098E-002   1.5341280887716928       0.24369496981341232     
  0.11714263749484626       -2.2465801649113548E-002   1.5208572366091415       0.24689459826366095     
  0.12261215624999999       -2.3412115637060749E-002   1.5341228350745089       0.24576201864898695     
  0.12774252940954162       -2.4281473586987297E-002   1.5350072605819971       0.24003228924421410     
  0.13096561718749999       -2.4814233892598000E-002   1.5567279327665302       0.23284708914272700     
   9.5639921875000006E-002  -1.8675827934528651E-002   1.5232653265889347       0.25463082681506310     
   9.8098125000000008E-002  -1.9114265909090902E-002   1.5174874192765462       0.25617372499428070     
  0.10322747823794415       -2.0037564939479301E-002   1.5101816843402027       0.25544229500329552     
  0.10729358593749999       -2.0763171735349400E-002   1.5324305956361290       0.25148802437390588     
  0.11167699218749999       -2.1529093906893650E-002   1.5299527274767322       0.24339268266564928     
   8.7682460937499998E-002  -1.7223402874581052E-002   1.4898330293688988       0.27914584407673793     
   9.3296763271596750E-002  -1.8255172914700399E-002   1.5222774302761797       0.25750956995787072     
   8.4000257812500007E-002   1.6512093678587750E-002   1.5060557443682341       0.27113748464920950     
   8.8903164062499998E-002   1.7456824881595050E-002   1.4898330293688984       0.27914584407673732     
   9.4409421875000010E-002   1.8455327934528649E-002   1.5222774302761779       0.25750956995786972     
   9.6860625000000006E-002   1.8893765909090900E-002   1.5232653265889322       0.25463082681506155     
   9.9318828125000008E-002   1.9333325116163952E-002   1.5174874192765428       0.25617372499427976     
  0.10381351253590934        2.0142512696836951E-002   1.5101816843401987       0.25544229500329568     
  0.10851428906249999        2.0980262314141351E-002   1.5324305956361266       0.25148802437390555     
  0.11289769531249999        2.1738868889044097E-002   1.5299527274767311       0.24339268266564928     
  0.11507160098057881        2.2109583368659549E-002   1.5341280887716915       0.24369496981341218     
  0.11892995312500000        2.2774106442336999E-002   1.5396338860167418       0.24736431765028644     
  0.12383285937499999        2.3620729027016049E-002   1.5341228350745080       0.24576201864898559     
  0.12833633693540808        2.4380755765207748E-002   1.5350072605819962       0.24003228924421283     
  0.13218632031249999        2.5013754039525798E-002   1.5567279327665302       0.23284708914272623     
  0.13463802343750000        2.5414953675494699E-002   1.5530309347972744       0.23449470656218355     
  0.13793072656249999        2.5958442905113753E-002   1.5469615196392501       0.23617267809118078     
  0.14344398437500000        2.6867971470013199E-002   1.5609026647843101       0.23320404687532587     
  0.14834689062500001        2.7660770933493600E-002   1.5626132074183352       0.22608096051148691     
  0.15104959374999999        2.8093438325040597E-002   1.5655076293821444       0.22357445454770930     
  0.15326718472567818        2.8447630013404203E-002   1.5556298287105770       0.23186123883539289     
  0.15876255468750000        2.9440081840804447E-002   1.5615086452145130       0.23129154586890555     
  0.79101562500000000       -6.3121083609832096E-002   1.9599323668590696       -8.5569994122195944E-002
  0.79704724779841296       -6.2673109360211393E-002   1.9469523435724805       -8.1581096468974781E-002
  0.79933586719528416       -6.2469741602695153E-002   1.9654298718079954       -9.5023912520346338E-002
  0.80187202688776416       -6.2233144333176699E-002   1.9720966917718592       -9.6773180017134114E-002
  0.80653953125000000       -6.1795997377844344E-002   1.9723331897840599       -9.4205489022353747E-002
  0.81144243750000000       -6.1325409138228704E-002   1.9756044483418336       -9.6210048603840997E-002
  0.81634534375000001       -6.0831997790981099E-002   1.9809382157338087      -0.10007574726396372     
  0.82214330975292471       -6.0230240117154096E-002   1.9829390426827338      -0.10324938994521080     
  0.82676100781250006       -5.9746167405272249E-002   1.9837269081124471      -0.10235334350503350     
  0.82940121093749997       -5.9470696570095100E-002   1.9848727654250640      -0.10293148237008548     
  0.83185241406249999       -5.9211710251803149E-002   1.9869145944321773      -0.10461950195212118     
  0.83656682031250007       -5.8699941035044556E-002   1.9927986992691993      -0.10842122587870537     
  0.84180077780670315       -5.8105457983026548E-002   1.9994150101820753      -0.11177793536563432     
  0.84576178125000001       -5.7626353591019898E-002   2.0040639278134491      -0.11717422893883618     
  0.84838867187500000       -5.7301192317946351E-002   2.0072386720681004      -0.11947559488937697     
  0.85495909375000001       -5.6470465663788452E-002   2.0133964198217580      -0.12181324892420428     
  0.85700358496652762       -5.6204030079533548E-002   2.0136512585098401      -0.12568635404032175     
  0.86110451468561999       -5.5640994559599755E-002   2.0364453304009915      -0.14125258727422527     
  0.86598325781249996       -5.4856329469137197E-002   2.0516436605991113      -0.14851075950438439     
  0.85606078620081894        5.6327719763255700E-002   2.0133964198217584      -0.12181324892420398     
  0.85959650564157930        5.5850565574422903E-002   2.0175786078161964      -0.13174243497624699     
  0.86230105468750007        5.5456940704029553E-002   2.0364453304009920      -0.14125258727422493     
  0.83062191406249997        5.9342210251803154E-002   1.9848727654250664      -0.10293148237008580     
  0.83307311718749999        5.9080359655122650E-002   1.9869145944321800      -0.10461950195212161     
  0.83863322232137694        5.8466416469166699E-002   1.9923105511101520      -0.11263793785737296     
  0.84226329151959789        5.8049982172759002E-002   1.9994150101820753      -0.11177793536563381     
  0.84698248437500001        5.7477715550731251E-002   2.0040639278134500      -0.11717422893883586     
  0.85188539062500002        5.6861935678629252E-002   2.0089692290112016      -0.11988848720402896     
  0.79715026456711824        6.2664234481837111E-002   1.9469523435724818       -8.1581096468975600E-002
  0.79982678192629519        6.2424649250417651E-002   1.9654298718079950       -9.5023912520346268E-002
  0.80276829515831283        6.2149215548967449E-002   1.9720966917718596       -9.6773180017133920E-002
  0.80776023437500000        6.1680689756627050E-002   1.9723331897840608       -9.4205489022353511E-002
  0.81420898437500000        6.1048975180276251E-002   1.9786990047730764       -9.8873823024225746E-002
  0.81756604687500001        6.0707212665676399E-002   1.9809382157338096      -0.10007574726396389     
  0.82293904120313444        6.0146844928724651E-002   1.9829390426827331      -0.10324938994521095     
  0.82798171093750006        5.9618696570095095E-002   1.9837269081124493      -0.10235334350503386     
  0.78630825781250002        6.3519526796748049E-002   1.9609523194405976       -8.5680926509351690E-002
  0.79366236718750005        6.2911492030047006E-002   1.9506214041512915       -7.7755667930712966E-002
   8.0087835746259051E-002  -1.5794400887269598E-002   1.5299402441451402       0.24600044574701518     
   8.2848655432598201E-002  -1.6298997216386651E-002   1.5060557443682332       0.27113748464920950     
   7.0816890624999990E-002  -1.4172134075446801E-002   1.5108198119271523       0.25775623432822414     
   7.1764499999999995E-002  -1.4342500000000001E-002   1.5108198119271523       0.25775623432822414     
   7.4199593750000001E-002  -1.4785546843254751E-002   1.5024714796270877       0.26161151615409695     
   7.6651296874999997E-002  -1.5229269382108050E-002   1.5112262388892763       0.25154785741008129     
   7.8500500000000001E-002  -1.5555877486077950E-002   1.5295600947369570       0.22715270668484941     
   6.2562929687499991E-002  -1.2665578950711400E-002   1.4878806306050349       0.26713772940914232     
   6.5004632812499991E-002  -1.3117108120905000E-002   1.4826653432476378       0.26601253869503405     
   6.7607822568431647E-002  -1.3596595539821000E-002   1.4898848647612857       0.25909293970364400     
   6.9220369199962190E-002  -1.3887352360190050E-002   1.5143832647216493       0.25583741807949650     
   5.3747468749999999E-002  -1.1014204178513400E-002   1.4607774725543672       0.28070747644324812     
   5.4625000000000000E-002  -1.1180499999999999E-002   1.4607774725543672       0.28070747644324812     
   5.7194830558269752E-002  -1.1668632291336450E-002   1.4577544004262135       0.28025324386710543     
   6.0101726562499999E-002  -1.2213420760742600E-002   1.4930970597040800       0.26727468173625080     
   6.1014499999999999E-002  -1.2381500000000000E-002   1.4930970597040800       0.26727468173625080     
   4.5298327626215600E-002  -9.3958796823430998E-003   1.4874833263926250       0.27552539270912424     
   4.7405288141571252E-002  -9.8007270885685990E-003   1.4740399771347157       0.28203161502250818     
   4.9685562500000002E-002  -1.0244111514628201E-002   1.4714786430117508       0.28352742218476834     
   5.1911265625000001E-002  -1.0670357812500000E-002   1.4674277131409734       0.27751825892772186     
   4.3974500000000000E-002  -9.1504999999999989E-003   1.4615046806224308       0.27118572088796405     
   4.3974500000000000E-002   9.1504999999999989E-003   1.4615046806224306       0.27118572088796372     
   4.4841663483750599E-002   9.3097446570976489E-003   1.4615046806224306       0.27118572088796372     
   4.6374288141571254E-002   9.6007270885686002E-003   1.4450756186675673       0.28059538864893413     
   4.8455062500000000E-002   1.0004611514628201E-002   1.4740399771347146       0.28203161502250823     
   5.0906265625000002E-002   1.0479857812500000E-002   1.4714786430117504       0.28352742218476812     
   5.3131968750000001E-002   1.0899704178513400E-002   1.4674277131409734       0.27751825892772197     
   5.4625000000000000E-002   1.1180499999999999E-002   1.4607774725543676       0.28070747644324778     
   5.5682716062753400E-002   1.1381195417290249E-002   1.4607774725543676       0.28070747644324778     
   5.8871226562500004E-002   1.1983920760742599E-002   1.4888228596508506       0.27499274324629652     
   6.1014499999999999E-002   1.2381500000000000E-002   1.4930970597040789       0.26727468173625163     
   6.1947929687500000E-002   1.2552578950711400E-002   1.4930970597040789       0.26727468173625163     
   6.3783632812499991E-002   1.2891108120905000E-002   1.4878806306050349       0.26713772940914271     
   6.6146833965009200E-002   1.3327669153250350E-002   1.4826653432476391       0.26601253869503405     
   6.8305869199962205E-002   1.3722852360190050E-002   1.4898848647612870       0.25909293970364283     
   7.0201390624999999E-002   1.4062634075446799E-002   1.5143832647216495       0.25583741807949612     
   7.1764499999999995E-002   1.4342500000000001E-002   1.5108198119271523       0.25775623432822409     
   7.2969093749999991E-002   1.4560046843254751E-002   1.5108198119271523       0.25775623432822409     
   7.5420296875000001E-002   1.5008269382108051E-002   1.5024714796270879       0.26161151615409695     
   7.7871999999999997E-002   1.5446877486077950E-002   1.5112262388892761       0.25154785741008234     
   7.9472835746259046E-002   1.5706400887269600E-002   1.5295600947369572       0.22715270668485019     
   8.1722959279613552E-002   1.6092957358598149E-002   1.4891562288090383       0.27523203069781987     
  0.89939624000694585       -4.9655733244021151E-002   2.0317842523804628      -0.13840291914682554     
  0.89756263108449530       -4.9922360624800051E-002   2.0363813509503097      -0.13554369304896666     
  0.90159368150653207       -4.9319223903908097E-002   2.0464148814259291      -0.14601510674092141     
  0.90397965624999999       -4.8931774304144651E-002   2.0544334933135562      -0.15088883952508539     
  0.90607085937499998       -4.8578736798176349E-002   2.0629729545178357      -0.15645602537160294     
  0.90699549999999995       -4.8416500000000001E-002   2.0629729545178357      -0.15645602537160294     
  0.90888256249999999       -4.8075629068426454E-002   2.0708013825901537      -0.16082053174328603     
  0.91155025302844894       -4.7588590632493100E-002   2.0744573750168058      -0.16220799152975787     
  0.91435232031250002       -4.7084196944766205E-002   2.0697517680619999      -0.15816640708989110     
  0.91501350000000004       -4.6967999999999996E-002   2.0697517680619999      -0.15816640708989110     
  0.91684702343750002       -4.6646360353786998E-002   2.0707177991821419      -0.15862185487478661     
  0.91929872656250000       -4.6208528965272153E-002   2.0745784579442175      -0.16152511436376762     
  0.92178742678531567       -4.5751982158893645E-002   2.0760706191869640      -0.16224023645830915     
  0.92354837846128923       -4.5429773637272547E-002   2.0720696425462615      -0.16233517924018573     
  0.92426649999999999       -4.5300500000000000E-002   2.0720696425462615      -0.16233517924018573     
  0.92604838847279325       -4.4975653217826997E-002   2.0778431791985210      -0.16458708260076418     
  0.92849368750000005       -4.4517470261072750E-002   2.0808111912982521      -0.16638097251376721     
  0.93084539062500005       -4.4071290906830249E-002   2.0822197333168075      -0.16678127398248754     
  0.93268109375000008       -4.3724053861788598E-002   2.0846925061470931      -0.16710736494741601     
  0.93346050000000003       -4.3576500000000004E-002   2.0846925061470931      -0.16710736494741601     
  0.93533777015579123       -4.3215821469194449E-002   2.0836012021560135      -0.16994666985488799     
  0.93890985156250006       -4.2516261166607450E-002   2.0900744817402765      -0.17115541283499139     
  0.93977900000000003       -4.2346000000000002E-002   2.0900744817402765      -0.17115541283499139     