VARIABLES="X" "Y" "gx" "gy"
 ZONE T="EDGE2D"
 DATAPACKING=POINT

  0.30666332657065370       -5.0064881468991101E-002  -1.8091283622147605E-004  -1.5715670221110156E-003
  0.31005859375000000       -5.0452295379537951E-002  -6.4515913904554046E-005  -5.6281937906836610E-004
  0.32206594408445599       -5.1825449871323703E-002  -1.9374919734754456E-006  -1.8714879950551197E-005
  0.25380126905172595       -4.3429264840019251E-002  -2.8674078974004458E-004  -2.1922855364619135E-003
  0.26234123437500001       -4.4543642550135903E-002   6.3231997054025244E-006   4.8522874513902761E-005
  0.27275739843750002       -4.5902446170240446E-002  -1.5338626676639970E-004  -1.1797962244231158E-003
  0.28256271093749996       -4.7168143005650101E-002  -4.6527142313459796E-004  -3.6346931972398040E-003
  0.28449413749524866       -4.7409730860931046E-002  -5.4409010383894255E-004  -4.3475605735309609E-003
  0.30114648437500002       -4.9423029224697601E-002  -6.4868017555740108E-005  -5.4887462819443525E-004
  0.21451302343750001       -3.7909008245734302E-002   8.0902880960935161E-006   5.6113642161986776E-005
  0.22343105217666132       -3.9199478998697350E-002  -7.3160470628800753E-005  -5.0442382603141378E-004
  0.23292479687500001       -4.0571745678765501E-002  -3.1108964836090800E-004  -2.1606064844302067E-003
  0.24169921875000000       -4.1799669997460653E-002  -8.1041792336044574E-004  -5.8968670884947429E-003
  0.25236631247845065       -4.3240707525569001E-002  -3.9541587012339443E-004  -2.9541610439158782E-003
  0.17433892187500000       -3.1781156081784501E-002   8.1557730161408576E-004   5.2706481017988707E-003
  0.18450708593749998       -3.3379518128342250E-002  -7.6446761561486595E-005  -4.8621640453373749E-004
  0.19407475540388747       -3.4880936938757448E-002  -7.8191917154967101E-004  -4.9832757940789785E-003
  0.19523089300132013       -3.5057834792783654E-002  -9.2016866023716514E-004  -6.1412108621108977E-003
  0.20980292353010299       -3.7229674735197851E-002  -3.1432604008174801E-004  -2.1467524692027340E-003
  0.16950916439179770       -3.1049279374295000E-002   2.0286271811474034E-003   1.5365948239722092E-002
  0.16841169775739456        3.0899385444900701E-002   8.2278527072444018E-004  -6.3798761451953970E-003
  0.17211914062500000        3.1437119296541749E-002   4.2678859767284879E-003  -2.8643345824237776E-002
  0.17555962500000000        3.1970891122994650E-002   2.1200758302281943E-004  -1.3422785252282590E-003
  0.18572778906249998        3.3571160075316103E-002   3.0624425296551377E-006  -1.9057341953801488E-005
  0.19472584445281449        3.4981859485486849E-002  -6.5298903421653984E-004   4.3715284909746285E-003
  0.20472856249999999        3.6485279861907902E-002  -5.1354718934298015E-004   3.4704652637995229E-003
  0.21083082031250000        3.7379453134521651E-002  -3.9967922388174822E-004   2.7620870482533144E-003
  0.21573372656250001        3.8084889908380951E-002   1.5999779733297248E-004  -1.1081479239125058E-003
  0.22827148437500000        3.9899222452328353E-002  -6.3263926208239479E-006   4.4676379967356628E-005
  0.23414550000000001        4.0746983138649051E-002  -7.7161212736755799E-004   5.4618181639301856E-003
  0.24456116406250000        4.2194277371148101E-002  -4.6230001183769761E-004   3.4237423011530821E-003
  0.25289868494505019        4.3310827031180651E-002  -1.6861540374085498E-004   1.2933882364568709E-003
  0.25808503125000004        4.3990497390256955E-002  -1.1710727467100618E-004   8.9914210986387529E-004
  0.26356193750000001        4.4702347926823052E-002   5.5547406600115531E-005  -4.2676486930249419E-004
  0.27397810156250002        4.6060732756157949E-002  -1.4698721294656826E-004   1.1341146994698643E-003
  0.28365409138605591        4.7306068863909999E-002  -3.1889711421893331E-004   2.5193294928351909E-003
  0.29419957812499997        4.8601211217539700E-002  -1.0951630021901375E-004   9.2325873254830992E-004
  0.30216883589456078        4.9543582631686803E-002  -2.2852568719212768E-004   1.9385637209862316E-003
  0.31005859375000000        5.0452295379537951E-002  -6.4515913904536482E-005   5.6281937906832100E-004
  0.31963622264998026        5.1547309083446201E-002  -7.2530432136641261E-005   6.3264304520696535E-004
  0.43546089537010152       -6.2515112933789946E-002  -1.1590594578675482E-004  -1.6190181051152774E-003
  0.43945835214592444       -6.2805075996659243E-002   2.5675567430731051E-004   3.6144991025806594E-003
  0.44921875000000000       -6.3505972219400700E-002  -1.2571735747575041E-004  -1.7671557771133176E-003
  0.46017038454587733       -6.4278513354691549E-002  -9.4660842714469270E-005  -1.3443005177740733E-003
  0.46947850000000002       -6.4914274047739945E-002  -9.7904756387349676E-005  -1.4542209379499113E-003
  0.47928431250000003       -6.5554956460745495E-002  -1.4804851381609602E-004  -2.3123736144089121E-003
  0.36464589121714441       -5.6329468369739850E-002  -1.4159632335451929E-004  -1.4550850538042337E-003
  0.36987304687500000       -5.6828982551192897E-002  -4.6577777834322896E-005  -4.8794664679718824E-004
  0.38131506581154362       -5.7918074412494053E-002  -2.3562114956327852E-005  -2.4999825872112913E-004
  0.39042364843749999       -5.8775121935309801E-002  -9.2857274801402996E-005  -9.9246896946764834E-004
  0.40022946093750000       -5.9667903272109246E-002  -1.2229195946866344E-004  -1.3562447598407870E-003
  0.40514059342396336       -6.0094583691543850E-002  -7.7167765615696222E-005  -9.0207636055132656E-004
  0.42045093750000001       -6.1362227935202102E-002  -1.8260039789043132E-004  -2.2969623179548912E-003
  0.43018815908555619       -6.2115091467623146E-002  -5.2149618574000647E-006  -6.9162479860669646E-005
  0.32469723348322133       -5.2124433556851299E-002  -7.1211551222729414E-005  -6.3314132673284416E-004
  0.34167100517066512       -5.4009546018618002E-002  -4.2977630388651858E-004  -3.9353126527429810E-003
  0.34667968750000000       -5.4530057301188303E-002  -1.4201741797083105E-004  -1.3765946301745394E-003
  0.36009659210801792       -5.5885313195433453E-002  -1.6302671725436021E-004  -1.6412902409976698E-003
  0.32261581635901820        5.1888302851211002E-002  -1.3060908561283221E-004   1.1416262664621143E-003
  0.34044807538706257        5.3876135496770450E-002  -3.5962225258441604E-004   3.3021937710096330E-003
  0.34249470960703982        5.4097788103835004E-002  -3.7778049074577331E-004   3.7133452543945261E-003
  0.35242260156249999        5.5121874078400648E-002  -3.3676644408332790E-004   3.3466362607154770E-003
  0.36372802900112622        5.6239975405350501E-002  -1.5139483986181161E-004   1.5624156606049017E-003
  0.36576446875000002        5.6437537355261101E-002  -1.5000081352945730E-004   1.5640147033504984E-003
  0.37264357812500004        5.7092847522153656E-002  -3.2080105627288469E-006   3.3908006145499936E-005
  0.38221573820562238        5.8003103156770555E-002  -4.0146784345098004E-005   4.2464728975914051E-004
  0.39164435156249999        5.8889261928225953E-002  -2.7875854938888729E-004   3.0226844785930032E-003
  0.40514059342396336        6.0094583691543850E-002  -7.7167765615717906E-005   9.0207636055163187E-004
  0.41186582812500000        6.0668164654428203E-002  -1.9786705586382746E-004   2.4119087311490761E-003
  0.42167164062500001        6.1458336188255497E-002  -1.5952445751076308E-004   2.0499636579280403E-003
  0.43116671964162778        6.2189756942174899E-002  -7.1868887699118311E-005   9.4074174942865990E-004
  0.43578784542309945        6.2538942968612204E-002  -1.1256177497768853E-004   1.5254725314059261E-003
  0.44067241406250002        6.2893101404583554E-002  -4.4044637075403743E-005   6.1104180548242348E-004
  0.45169842968750001        6.3682224027365147E-002  -3.2956991935828399E-005   4.6824761298991380E-004
  0.46132723262431335        6.4357884847489943E-002  -8.9607696824354523E-005   1.3129503143768720E-003
  0.47069920312500002        6.4996043693187594E-002  -1.4064856968428775E-004   2.1165428512145285E-003
  0.54684137428564306       -6.8707200988562256E-002  -6.4042363212984260E-005  -2.0445710927002210E-003
  0.55173986412710474       -6.8857573825156060E-002  -5.0682532248619988E-005  -1.7921125871017025E-003
  0.55908187621987504       -6.9065753065636198E-002  -3.2850837809257800E-005  -1.2331007338278223E-003
  0.57733993750000001       -6.9499493861720496E-002  -1.6596492934446531E-005  -7.5811859531592536E-004
  0.57983398437500000       -6.9549243492889795E-002  -6.1075837469521527E-005  -3.0842585672760849E-003
  0.58959960937500000       -6.9722978725497708E-002  -5.7324184611521039E-005  -3.5654711418412477E-003
  0.60797707812500001       -6.9951286257300654E-002  -2.4158383666180458E-005  -2.7285847183389075E-003
  0.61778289062500003       -7.0018271142786401E-002  -1.3492865381702968E-005  -2.6935727674350209E-003
  0.62758820312499997       -7.0046582497460652E-002  -2.8242502445772967E-006  -2.7124770291259322E-003
  0.63739401562499998       -7.0034246881665152E-002   1.0299347808751923E-005  -3.0497604570897579E-003
  0.48908962499999997       -6.6150226536312848E-002  -1.4537328452890377E-004  -2.4505632964690674E-003
  0.49969528700812682       -6.6737323407616955E-002  -1.9296293565312927E-004  -3.5355856173594838E-003
  0.50931110156250003       -6.7218112134967006E-002  -1.5163102590425286E-004  -3.1599255356194907E-003
  0.51269531250000000       -6.7372077468007302E-002  -1.0117051287677689E-004  -2.1948822699561291E-003
  0.52246093750000000       -6.7799865191721709E-002  -7.9464263799377752E-005  -1.9132473068937846E-003
  0.53877568824919542       -6.8431013631013254E-002  -2.1711418736750782E-005  -6.1646903157646857E-004
  0.54193774598879485       -6.8540831545029490E-002  -3.2961765576038082E-005  -9.5651170395387106E-004
  0.48050501562500003        6.5632272451117302E-002  -2.0474463302008750E-004   3.3079995681969121E-003
  0.49031032812499997        6.6221655851678357E-002  -2.0152957995655564E-004   3.5588796583878035E-003
  0.50169157357608851        6.6837329222898506E-002  -8.1191919327204196E-005   1.6638150374991417E-003
  0.51757812500000000        6.7592265234613050E-002  -1.4961564204107533E-004   3.4223643860708426E-003
  0.52734375000000000        6.7999740604367698E-002  -1.1938579702090984E-004   3.0129908107918851E-003
  0.53014292968749999        6.8110989573018255E-002  -5.2444277133698383E-005   1.4011329858342261E-003
  0.53983623529555214        6.8468459243927748E-002  -1.9159917947988818E-005   5.3713561444855215E-004
  0.54615591656479867        6.8685893586837493E-002  -3.9574490524917245E-005   1.2914117474825265E-003
  0.55119638818439620        6.8842105663709741E-002  -3.1551705707599451E-005   1.1424369771001266E-003
  0.56030441222506133        6.9096921835296102E-002  -5.1627302305772265E-005   1.9549167411959285E-003
  0.56875482812500000        6.9312027020807951E-002  -5.4204187856618687E-005   2.2870076215467834E-003
  0.58227539062500000        6.9593880681818210E-002  -1.8376793539610393E-005   9.8454609755958995E-004
  0.59448242187500000        6.9793399137340006E-002  -1.4138110462220445E-005   9.9777172381858813E-004
  0.60180664062500000        6.9885476614080760E-002  -1.2028888896567762E-005   1.1087231017690383E-003
  0.61401367187500000        6.9992622386311695E-002  -7.0686088972737957E-006   1.0983011196307579E-003
  0.62133789062500000        7.0028806088115791E-002  -4.1183334662571068E-006   1.3980655175528994E-003
  0.63354492187500000        7.0039328967664544E-002   2.3352269479372332E-006   1.3757579886253535E-003
  0.64719932812499992       -6.9973427491747106E-002   2.5203253889903359E-005  -3.0066857141660313E-003
  0.65700514062499993       -6.9862062676150194E-002   3.7214148308239211E-005  -2.7594616819441725E-003
  0.66681045312499998       -6.9701075382491096E-002   4.5474363417139039E-005  -2.4575249365448998E-003
  0.67661626562499999       -6.9491465741163952E-002   5.2635814699728348E-005  -2.2475295333251304E-003
  0.68642157812500004       -6.9234205148552552E-002   4.6788428886964002E-005  -1.6908356619477049E-003
  0.69452203920338684       -6.8983474910071146E-002   2.1108684056227178E-005  -6.5699881522905332E-004
  0.69941652832639367       -6.8824488460322492E-002   5.2288278549054643E-005  -1.5489215448084258E-003
  0.70316944254548741       -6.8689903227446905E-002   7.1674804375221682E-005  -1.8389752407242388E-003
  0.70807942956244085       -6.8493731804966262E-002   4.0074103657741431E-005  -9.5816568639424046E-004
  0.72503347656249995       -6.7744920188706204E-002   4.6924424559184955E-005  -9.9793285690284381E-004
  0.72753906250000000       -6.7620573621267499E-002   1.6885816604031260E-004  -3.3931291191232824E-003
  0.73730468750000000       -6.7102773082783146E-002   2.0969529101326143E-004  -3.7736855559625804E-003
  0.75506026562500006       -6.6003345427564752E-002   1.2636922791016414E-004  -1.9016091031649474E-003
  0.76486607812500007       -6.5301832684275349E-002   9.1299630641514251E-005  -1.2456914149589979E-003
  0.77490792769603689       -6.4526505458631561E-002   1.7097031443544936E-004  -2.2362206851751151E-003
  0.78508755468750002       -6.3623662850872204E-002  -1.3184627894240880E-004   1.4945487959059645E-003
  0.70562215777309578        6.8593747623358250E-002   5.1560382059485585E-005   1.3011292308762260E-003
  0.70680957446396020        6.8546539967251449E-002   3.4079059689920768E-005   8.1049356743422701E-004
  0.71644886718750000        6.8145157436357295E-002   9.9551806724412772E-005   2.2657997577674206E-003
  0.73242187500000000        6.7365671567133856E-002   7.8770892542601167E-005   1.5101202073374460E-003
  0.73730468750000000        6.7102773082783146E-002   2.0969529101322326E-004   3.7736855559617269E-003
  0.74620734713189008        6.6579751801773349E-002   6.0062770769532883E-005   9.9913830648969137E-004
  0.75628096875000006        6.5920037289889294E-002   1.4616355683172433E-004   2.0949187594484636E-003
  0.76608678125000007        6.5211051510919243E-002   1.1600116010176964E-004   1.5416973915209631E-003
  0.77648708504844399        6.4391468336625804E-002   2.1529602452985408E-004   2.4409583373704996E-003
  0.64331054687500000        6.9997917531107207E-002   1.0147301271987022E-005   1.5030870725693149E-003
  0.65063476562500000        6.9935173825347891E-002   2.2616473342786016E-005   2.0592205673743676E-003
  0.66528320312500000        6.9726361492191441E-002   6.0370038225912147E-005   3.3421166055114838E-003
  0.67016601562500000        6.9630349856540694E-002   4.4567252693912367E-005   2.1575561760226042E-003
  0.68237304687500000        6.9341124206450000E-002   4.5864436210321831E-005   1.7679446955450769E-003
  0.69581243076022870        6.8943240275910006E-002   3.4718169490048287E-005   1.1028861191230178E-003
  0.69728113858416241        6.8895998385117813E-002   1.3297589387557644E-005   3.8698146992618282E-004
  0.15228059375000000       -2.8288938325040598E-002   1.5723961322021817E-003   1.0060058462283514E-002
  0.15754185156250000       -2.9243749227412900E-002  -6.6781007574062082E-003  -3.8857988777987726E-002
  0.16483109247505229       -3.0406577024737452E-002  -2.9614382279725343E-003  -1.8973729456848762E-002
  0.13341732031250000       -2.5214254039525798E-002   2.2405341160325332E-004   1.3657327520327778E-003
  0.13671002343749999       -2.5756953675494701E-002   2.4813264486998020E-004   1.5073209041510244E-003
  0.14236868511362677       -2.6692243079929352E-002  -6.5404887313910351E-004  -3.9559972638397167E-003
  0.14712618750000001       -2.7464094949725799E-002  -3.4477297514845517E-004  -2.1563078046816578E-003
  0.14982889062499999       -2.7898270933493598E-002  -7.4885025375887385E-005  -4.9435149896948083E-004
  0.11412819531250000       -2.1948368889044098E-002  -1.2007452557383745E-004  -7.0386203498595812E-004
  0.11714263749484626       -2.2465801649113548E-002   4.7286097211121474E-004   2.7392509416189897E-003
  0.12261215624999999       -2.3412115637060749E-002  -6.3029543681006502E-004  -3.6632558564076850E-003
  0.12774252940954162       -2.4281473586987297E-002  -1.7280866356877457E-004  -1.0466650658444293E-003
  0.13096561718749999       -2.4814233892598000E-002  -5.4290739528063507E-004  -3.3039080233193407E-003
   9.5639921875000006E-002  -1.8675827934528651E-002  -4.5226732054263336E-004  -2.5289857742284427E-003
   9.8098125000000008E-002  -1.9114265909090902E-002   2.2006319438936175E-004   1.2300545228897952E-003
  0.10322747823794415       -2.0037564939479301E-002  -6.8401282955665027E-005  -3.8246150512619148E-004
  0.10729358593749999       -2.0763171735349400E-002  -5.3706583676203790E-004  -3.0211053964908502E-003
  0.11167699218749999       -2.1529093906893650E-002  -5.8546483532820846E-004  -3.3985882443749171E-003
   8.7682460937499998E-002  -1.7223402874581052E-002  -1.1928139766825552E-003  -6.1817751292008311E-003
   9.3296763271596750E-002  -1.8255172914700399E-002  -7.1987205127628864E-004  -4.0035040125212806E-003
   8.4000257812500007E-002   1.6512093678587750E-002   2.9659304653763888E-003  -1.5669404108892018E-002
   8.8903164062499998E-002   1.7456824881595050E-002  -3.0051804735381181E-003   1.6072403683229056E-002
   9.4409421875000010E-002   1.8455327934528649E-002  -4.5226732054268887E-004   2.5289857742287480E-003
   9.6860625000000006E-002   1.8893765909090900E-002   2.2006319438945196E-004  -1.2300545228902671E-003
   9.9318828125000008E-002   1.9333325116163952E-002   2.2100797582443044E-004  -1.2289732884028515E-003
  0.10381351253590934        2.0142512696836951E-002  -4.2820376354358453E-004   2.3884471300141263E-003
  0.10851428906249999        2.0980262314141351E-002  -1.2153079187289875E-003   6.9339064684355023E-003
  0.11289769531249999        2.1738868889044097E-002  -1.2007452557385827E-004   7.0386203498608302E-004
  0.11507160098057881        2.2109583368659549E-002   2.3891888710199545E-004  -1.3979999477070348E-003
  0.11892995312500000        2.2774106442336999E-002   1.8712870144576427E-004  -1.0819400839389981E-003
  0.12383285937499999        2.3620729027016049E-002  -5.2282148033874938E-004   3.0732253126142667E-003
  0.12833633693540808        2.4380755765207748E-002  -7.2667187420731062E-004   4.3650915794883755E-003
  0.13218632031249999        2.5013754039525798E-002   2.2405341160327240E-004  -1.3657327520329166E-003
  0.13463802343750000        2.5414953675494699E-002   2.4813264487000622E-004  -1.5073209041511493E-003
  0.13793072656249999        2.5958442905113753E-002   1.4300281914250354E-004  -8.6421582421759846E-004
  0.14344398437500000        2.6867971470013199E-002  -6.1556920441432211E-004   3.7978101526227048E-003
  0.14834689062500001        2.7660770933493600E-002  -7.4885025375927283E-005   4.9435149896969593E-004
  0.15104959374999999        2.8093438325040597E-002   1.5723961322022407E-003  -1.0060058462283854E-002
  0.15326718472567818        2.8447630013404203E-002   4.2811165861601549E-003  -2.6223479826717869E-002
  0.15876255468750000        2.9440081840804447E-002  -1.6455361902934264E-003   1.0127311381798301E-002
  0.79101562500000000       -6.3121083609832096E-002  -4.1411519927752119E-004   4.9750780267301606E-003
  0.79704724779841296       -6.2673109360211393E-002   1.3090193605419173E-004  -1.5406315439011400E-003
  0.79933586719528416       -6.2469741602695153E-002   2.5890022360391604E-004  -2.7577761626992395E-003
  0.80187202688776416       -6.2233144333176699E-002   1.7849226807707327E-004  -1.8866349359395809E-003
  0.80653953125000000       -6.1795997377844344E-002   1.0733909830881044E-004  -1.1200508513246957E-003
  0.81144243750000000       -6.1325409138228704E-002   1.2422548921178431E-004  -1.2803529334608488E-003
  0.81634534375000001       -6.0831997790981099E-002   9.1464995845523533E-005  -9.1062011727762598E-004
  0.82214330975292471       -6.0230240117154096E-002   2.4816668161696531E-005  -2.3500759757733719E-004
  0.82676100781250006       -5.9746167405272249E-002   1.6429915975113563E-005  -1.5608185952729892E-004
  0.82940121093749997       -5.9470696570095100E-002   5.2431746748581726E-005  -5.0225833673067655E-004
  0.83185241406249999       -5.9211710251803149E-002   1.0274845551878908E-004  -9.7177026095968816E-004
  0.83656682031250007       -5.8699941035044556E-002   2.5544465283480061E-004  -2.3321831122081749E-003
  0.84180077780670315       -5.8105457983026548E-002   1.0219680122908192E-004  -9.1434871293302744E-004
  0.84576178125000001       -5.7626353591019898E-002   1.3697750150477861E-004  -1.1097833002162161E-003
  0.84838867187500000       -5.7301192317946351E-002   2.7750779201003717E-004  -2.2273370800543132E-003
  0.85495909375000001       -5.6470465663788452E-002   4.1889845577930407E-004  -3.2763937145924363E-003
  0.85700358496652762       -5.6204030079533548E-002   5.0762380984403083E-004  -3.9116636130690080E-003
  0.86110451468561999       -5.5640994559599755E-002   3.5567383169815558E-004  -2.2406456812660569E-003
  0.86598325781249996       -5.4856329469137197E-002   2.0641882241349135E-004  -1.2671828754932390E-003
  0.85606078620081894        5.6327719763255700E-002   2.4830925193645992E-004   1.8907061583981477E-003
  0.85959650564157930        5.5850565574422903E-002   4.6889907156171667E-004   3.4453521817529170E-003
  0.86230105468750007        5.5456940704029553E-002   4.5419984602397545E-004   2.8583958007916410E-003
  0.83062191406249997        5.9342210251803154E-002   1.0274845551878214E-004   9.7177026095952163E-004
  0.83307311718749999        5.9080359655122650E-002   1.3806363527918419E-004   1.2906223948196474E-003
  0.83863322232137694        5.8466416469166699E-002   2.6511646800338878E-004   2.3730609128607555E-003
  0.84226329151959789        5.8049982172759002E-002   1.7428299838311706E-004   1.4345136587125759E-003
  0.84698248437500001        5.7477715550731251E-002   1.4775640294295567E-004   1.1959663235927009E-003
  0.85188539062500002        5.6861935678629252E-002   2.4839752888019401E-004   1.9578026027825685E-003
  0.79715026456711824        6.2664234481837111E-002   3.0079373774528906E-004   3.9559493908575202E-003
  0.79982678192629519        6.2424649250417651E-002  -4.5232964507244122E-006   5.4419864483443159E-005
  0.80276829515831283        6.2149215548967449E-002   1.7824675579484334E-005   2.2816059932676686E-004
  0.80776023437500000        6.1680689756627050E-002   1.3207956766338874E-004   1.3757024813102689E-003
  0.81420898437500000        6.1048975180276251E-002   2.3316020263498480E-004   2.3396270076924269E-003
  0.81756604687500001        6.0707212665676399E-002   1.2747554485996460E-004   1.2500956763520643E-003
  0.82293904120313444        6.0146844928724651E-002  -5.3658609757284426E-006  -5.0388914384795480E-005
  0.82798171093750006        5.9618696570095095E-002   5.2431746748550501E-005   5.0225833673026715E-004
  0.78630825781250002        6.3519526796748049E-002  -1.5274056294893590E-004  -1.7779200077154556E-003
  0.79366236718750005        6.2911492030047006E-002   5.0811194545911931E-005   7.2273991560622280E-004
   8.0087835746259051E-002  -1.5794400887269598E-002   4.1233355288491178E-003   2.6177527577347162E-002
   8.2848655432598201E-002  -1.6298997216386651E-002   2.3086709840664365E-003   1.2753037371954129E-002
   7.0816890624999990E-002  -1.4172134075446801E-002   3.4091253890161308E-004   1.8815725366705532E-003
   7.1764499999999995E-002  -1.4342500000000001E-002   0.0000000000000000        0.0000000000000000     
   7.4199593750000001E-002  -1.4785546843254751E-002   3.4455251045707735E-004   1.8834950661784089E-003
   7.6651296874999997E-002  -1.5229269382108050E-002  -1.8729667546604281E-003  -1.0411437409543423E-002
   7.8500500000000001E-002  -1.5555877486077950E-002  -4.4394545030583196E-003  -2.7624739220627498E-002
   6.2562929687499991E-002  -1.2665578950711400E-002  -9.4490006404469862E-005  -5.1242166770490427E-004
   6.5004632812499991E-002  -1.3117108120905000E-002  -2.7580459016041808E-004  -1.4944591800576806E-003
   6.7607822568431647E-002  -1.3596595539821000E-002  -5.8081851648736707E-004  -3.2184632337821928E-003
   6.9220369199962190E-002  -1.3887352360190050E-002  -5.2567741466512385E-004  -2.9131379649862121E-003
   5.3747468749999999E-002  -1.1014204178513400E-002   3.6417208329103667E-004   1.9294648364625300E-003
   5.4625000000000000E-002  -1.1180499999999999E-002   0.0000000000000000        0.0000000000000000     
   5.7194830558269752E-002  -1.1668632291336450E-002  -1.0690496159644139E-003  -5.6430633230685617E-003
   6.0101726562499999E-002  -1.2213420760742600E-002  -1.2959498725358502E-003  -6.9816862404664531E-003
   6.1014499999999999E-002  -1.2381500000000000E-002   0.0000000000000000        0.0000000000000000     
   4.5298327626215600E-002  -9.3958796823430998E-003   1.6153222694335022E-003   8.4892113585612883E-003
   4.7405288141571252E-002  -9.8007270885685990E-003   5.7684083042773213E-004   2.9875434824068459E-003
   4.9685562500000002E-002  -1.0244111514628201E-002  -5.1423078314339482E-005  -2.6548390022526624E-004
   5.1911265625000001E-002  -1.0670357812500000E-002  -1.4632715941085041E-003  -7.6997771710571178E-003
   4.3974500000000000E-002  -9.1504999999999989E-003   0.0000000000000000        0.0000000000000000     
   4.3974500000000000E-002   9.1504999999999989E-003   0.0000000000000000        0.0000000000000000     
   4.4841663483750599E-002   9.3097446570976489E-003   1.0213952177408406E-003  -5.4167010621582468E-003
   4.6374288141571254E-002   9.6007270885686002E-003   5.7684083042773560E-004  -2.9875434824068736E-003
   4.8455062500000000E-002   1.0004611514628201E-002  -5.1423078314377646E-005   2.6548390022546053E-004
   5.0906265625000002E-002   1.0479857812500000E-002  -1.4632715941084729E-003   7.6997771710569790E-003
   5.3131968750000001E-002   1.0899704178513400E-002   3.6417208329098810E-004  -1.9294648364623218E-003
   5.4625000000000000E-002   1.1180499999999999E-002   0.0000000000000000        0.0000000000000000     
   5.5682716062753400E-002   1.1381195417290249E-002  -2.0420348038220279E-004   1.0820886293804594E-003
   5.8871226562500004E-002   1.1983920760742599E-002  -1.2959498725358433E-003   6.9816862404664115E-003
   6.1014499999999999E-002   1.2381500000000000E-002   0.0000000000000000        0.0000000000000000     
   6.1947929687500000E-002   1.2552578950711400E-002  -9.4490006404525373E-005   5.1242166770514019E-004
   6.3783632812499991E-002   1.2891108120905000E-002  -2.7580459016046666E-004   1.4944591800579443E-003
   6.6146833965009200E-002   1.3327669153250350E-002  -8.1828936080917056E-004   4.4532062473432443E-003
   6.8305869199962205E-002   1.3722852360190050E-002  -5.2567741466501977E-004   2.9131379649856848E-003
   7.0201390624999999E-002   1.4062634075446799E-002   3.4091253890165124E-004  -1.8815725366707753E-003
   7.1764499999999995E-002   1.4342500000000001E-002   0.0000000000000000        0.0000000000000000     
   7.2969093749999991E-002   1.4560046843254751E-002   3.4455251045706695E-004  -1.8834950661783673E-003
   7.5420296875000001E-002   1.5008269382108051E-002  -1.8729667546603379E-003   1.0411437409542937E-002
   7.7871999999999997E-002   1.5446877486077950E-002  -4.4394545030583630E-003   2.7624739220627803E-002
   7.9472835746259046E-002   1.5706400887269600E-002   4.1233355288491109E-003  -2.6177527577347107E-002
   8.1722959279613552E-002   1.6092957358598149E-002   4.2614108142694264E-003  -2.2932158852753973E-002
  0.89939624000694585       -4.9655733244021151E-002   8.3971330019388946E-005  -5.5069129573090403E-004
  0.89756263108449530       -4.9922360624800051E-002   3.5522709150356824E-004  -2.4810740786328639E-003
  0.90159368150653207       -4.9319223903908097E-002   1.9713081395556636E-004  -1.1973063939642870E-003
  0.90397965624999999       -4.8931774304144651E-002   4.7168088777639616E-004  -2.9017866948341797E-003
  0.90607085937499998       -4.8578736798176349E-002   5.2483524789587177E-004  -3.1176406987954708E-003
  0.90699549999999995       -4.8416500000000001E-002   0.0000000000000000        0.0000000000000000     
  0.90888256249999999       -4.8075629068426454E-002   4.0394891545100786E-004  -2.3208450162274935E-003
  0.91155025302844894       -4.7588590632493100E-002  -1.0318430628202674E-004   5.4449224554875553E-004
  0.91435232031250002       -4.7084196944766205E-002  -1.1399787117213900E-005   6.6238487013120517E-005
  0.91501350000000004       -4.6967999999999996E-002   0.0000000000000000        0.0000000000000000     
  0.91684702343750002       -4.6646360353786998E-002   4.3517804829362738E-005  -2.4561578823563412E-004
  0.91929872656250000       -4.6208528965272153E-002   1.3346674542284720E-004  -7.4550356792271733E-004
  0.92178742678531567       -4.5751982158893645E-002  -1.9350890417019206E-005   1.0791606123553010E-004
  0.92354837846128923       -4.5429773637272547E-002   2.5693179140869049E-005  -1.4195318358582731E-004
  0.92426649999999999       -4.5300500000000000E-002   0.0000000000000000        0.0000000000000000     
  0.92604838847279325       -4.4975653217826997E-002   6.5090367956675832E-005  -3.4728983069204356E-004
  0.92849368750000005       -4.4517470261072750E-002   1.5659544325521274E-004  -8.3733549705929111E-004
  0.93084539062500005       -4.4071290906830249E-002   2.0179506505649258E-004  -1.0717303707898085E-003
  0.93268109375000008       -4.3724053861788598E-002   2.1488189686287573E-004  -1.1367136180012449E-003
  0.93346050000000003       -4.3576500000000004E-002   0.0000000000000000        0.0000000000000000     
  0.93533777015579123       -4.3215821469194449E-002   1.6357560113623715E-004  -8.4709881022636269E-004
  0.93890985156250006       -4.2516261166607450E-002   8.1812589259905311E-005  -4.1543598592357067E-004
  0.93977900000000003       -4.2346000000000002E-002   0.0000000000000000        0.0000000000000000     